
Running Job 1 of 1 CHOSx.in
qchem CHOSx.in_2822.0 /staging/pv/kris658/.QCSCRATCH/CHOSx.save/ 1
/usr/usc/qchem/5.1.1/exe/qcprog.exe_s CHOSx.in_2822.0 /staging/pv/kris658/.QCSCRATCH/CHOSx.save/
Check license passed

                  Welcome to Q-Chem
     A Quantum Leap Into The Future Of Chemistry


 Q-Chem 5.1, Q-Chem, Inc., Pleasanton, CA (2018)

 Yihan Shao,  Zhengting Gan,  E. Epifanovsky,  A. T. B. Gilbert,  M. Wormit,  
 J. Kussmann,  A. W. Lange,  A. Behn,  Jia Deng,  Xintian Feng,  D. Ghosh,  
 M. Goldey,  P. R. Horn,  L. D. Jacobson,  I. Kaliman,  T. Kus,  A. Landau,  
 Jie Liu,  E. I. Proynov,  R. M. Richard,  R. P. Steele,  E. J. Sundstrom,  
 H. L. Woodcock III,  P. M. Zimmerman,  D. Zuev,  B. Albrecht,  E. Alguire,  
 S. A. Baeppler,  D. Barton,  Z. Benda,  Y. A. Bernard,  E. J. Berquist,  
 K. B. Bravaya,  H. Burton,  D. Casanova,  Chun-Min Chang,  Yunqing Chen,  
 A. Chien,  K. D. Closser,  M. P. Coons,  S. Coriani,  S. Dasgupta,  
 A. L. Dempwolff,  M. Diedenhofen,  Hainam Do,  R. G. Edgar,  Po-Tung Fang,  
 S. Faraji,  S. Fatehi,  Qingguo Feng,  K. D. Fenk,  J. Fosso-Tande,  
 Qinghui Ge,  A. Ghysels,  G. Gidofalvi,  J. Gomes,  J. Gonthier,  A. Gunina,  
 D. Hait,  M. W. D. Hanson-Heine,  P. H. P. Harbach,  A. W. Hauser,  
 J. E. Herr,  E. G. Hohenstein,  Z. C. Holden,  Kerwin Hui,  B. C. Huynh,  
 T.-C. Jagau,  Hyunjun Ji,  B. Kaduk,  K. Khistyaev,  Jaehoon Kim,  
 P. Klunzinger,  K. Koh,  D. Kosenkov,  L. Koulias,  T. Kowalczyk,  
 C. M. Krauter,  A. Kunitsa,  Ka Un Lao,  A. Laurent,  K. V. Lawler,  
 Joonho Lee,  D. Lefrancois,  S. Lehtola,  D. S. Levine,  Yi-Pei Li,  
 You-Sheng Lin,  Fenglai Liu,  E. Livshits,  A. Luenser,  P. Manohar,  
 E. Mansoor,  S. F. Manzer,  Shan-Ping Mao,  Yuezhi Mao,  N. Mardirossian,  
 A. V. Marenich,  T. Markovich,  L. A. Martinez-Martinez,  S. A. Maurer,  
 N. J. Mayhall,  S. C. McKenzie,  J.-M. Mewes,  A. F. Morrison,  
 J. W. Mullinax,  K. Nanda,  T. S. Nguyen-Beck,  R. Olivares-Amaya,  
 J. A. Parkhill,  T. M. Perrine,  F. Plasser,  P. Pokhilko,  S. Prager,  
 A. Prociuk,  E. Ramos,  D. R. Rehn,  F. Rob,  M. Schneider,  N. Sergueev,  
 S. M. Sharada,  S. Sharma,  D. W. Small,  T. Stauch,  T. Stein,  
 Yu-Chuan Su,  A. J. W. Thom,  A. Tkatchenko,  T. Tsuchimochi,  N. M. Tubman,  
 L. Vogt,  M. L. Vidal,  O. Vydrov,  M. A. Watson,  J. Wenzel,  
 M. de Wergifosse,  T. A. Wesolowski,  A. White,  J. Witte,  A. Yamada,  
 Jun Yang,  K. Yao,  S. Yeganeh,  S. R. Yost,  Zhi-Qiang You,  A. Zech,  
 Igor Ying Zhang,  Xing Zhang,  Yan Zhao,  Ying Zhu,  B. R. Brooks,  
 G. K. L. Chan,  C. J. Cramer,  M. S. Gordon,  W. J. Hehre,  A. Klamt,  
 M. W. Schmidt,  C. D. Sherrill,  D. G. Truhlar,  A. Aspuru-Guzik,  R. Baer,  
 A. T. Bell,  N. A. Besley,  Jeng-Da Chai,  A. E. DePrince, III,  
 R. A. DiStasio Jr.,  A. Dreuw,  B. D. Dunietz,  T. R. Furlani,  
 Chao-Ping Hsu,  Yousung Jung,  Jing Kong,  D. S. Lambrecht,  WanZhen Liang,  
 C. Ochsenfeld,  V. A. Rassolov,  L. V. Slipchenko,  J. E. Subotnik,  
 T. Van Voorhis,  J. M. Herbert,  A. I. Krylov,  P. M. W. Gill,  M. Head-Gordon

 Contributors to earlier versions of Q-Chem not listed above: 
 R. D. Adamson,  B. Austin,  J. Baker,  G. J. O. Beran,  K. Brandhorst,  
 S. T. Brown,  E. F. C. Byrd,  A. K. Chakraborty,  C.-L. Cheng,  
 Siu Hung Chien,  D. M. Chipman,  D. L. Crittenden,  H. Dachsel,  
 R. J. Doerksen,  A. D. Dutoi,  L. Fusti-Molnar,  W. A. Goddard III,  
 A. Golubeva-Zadorozhnaya,  S. R. Gwaltney,  G. Hawkins,  A. Heyden,  
 S. Hirata,  G. Kedziora,  F. J. Keil,  C. Kelley,  Jihan Kim,  R. A. King,  
 R. Z. Khaliullin,  P. P. Korambath,  W. Kurlancheek,  A. M. Lee,  M. S. Lee,  
 S. V. Levchenko,  Ching Yeh Lin,  D. Liotard,  R. C. Lochan,  I. Lotan,  
 P. E. Maslen,  N. Nair,  D. P. O'Neill,  D. Neuhauser,  E. Neuscamman,  
 C. M. Oana,  R. Olson,  B. Peters,  R. Peverati,  P. A. Pieniazek,  
 Y. M. Rhee,  J. Ritchie,  M. A. Rohrdanz,  E. Rosta,  N. J. Russ,  
 H. F. Schaefer III,  N. E. Schultz,  N. Shenvi,  A. C. Simmonett,  A. Sodt,  
 D. Stuck,  K. S. Thanthiriwatte,  V. Vanovschi,  Tao Wang,  A. Warshel,  
 C. F. Williams,  Q. Wu,  X. Xu,  W. Zhang

 Please cite Q-Chem as follows:
 Y. Shao et al., Mol. Phys. 113, 184-215 (2015)
 DOI: 10.1080/00268976.2014.952696

 Q-Chem 5.1.1 for Intel X86 EM64T Linux

 Parts of Q-Chem use Armadillo 8.300.2 (Tropical Shenanigans).
 http://arma.sourceforge.net/

 Q-Chem begins on Thu Jan 10 17:37:59 2019  

Host: 
0

     Scratch files written to /staging/pv/kris658/.QCSCRATCH/CHOSx.save//
 Aug318 |scratch|qcdevops|jenkins|workspace|build_RNUM 6013   
Processing $rem in /usr/usc/qchem/5.1.1/config/preferences.
 MEM_TOTAL  2000 
Input Ideriv = 2
Curr. Ideriv = -1
Max.  Ideriv = 2

Checking the input file for inconsistencies... 	...done.

--------------------------------------------------------------
User input:
--------------------------------------------------------------
$comment
Length-scal DFT calculation for PE - thioketone
$end

$molecule
0  1
S -1.38098 -0.00022 -0.00097
C 0.25794 -0.00002 -0.00047
C 1.06915 1.26908 0.00015
C 1.06941 -1.26894 0.00017
H 1.72543 1.29489 0.88022
H 1.73192 1.29229 -0.87506
H 0.43429 2.15444 -0.00332
H 0.43469 -2.15442 -0.00192
H 1.72689 -1.29395 0.87935
H 1.73099 -1.29258 -0.87594
$end

$rem
JOBTYPE  PES_SCAN
UNRESTRICTED TRUE
SYM_IGNORE  TRUE
GEOM_OPT_MAX_CYCLES 400
SCF_MAX_CYCLES 400
METHOD   B3LYP
BASIS   6-31G**
PDB_PRINT 2
SCF_CONVERGENCE 6
THRESH 14
SCF_PRINT 1
$end

$scan
stre 1 2 1.55 4.5 0.1
$end
--------------------------------------------------------------
 ----------------------------------------------------------------
             Standard Nuclear Orientation (Angstroms)
    I     Atom           X                Y                Z
 ----------------------------------------------------------------
    1      S      -1.3809800000    -0.0002200000    -0.0009700000
    2      C       0.2579400000    -0.0000200000    -0.0004700000
    3      C       1.0691500000     1.2690800000     0.0001500000
    4      C       1.0694100000    -1.2689400000     0.0001700000
    5      H       1.7254300000     1.2948900000     0.8802200000
    6      H       1.7319200000     1.2922900000    -0.8750600000
    7      H       0.4342900000     2.1544400000    -0.0033200000
    8      H       0.4346900000    -2.1544200000    -0.0019200000
    9      H       1.7268900000    -1.2939500000     0.8793500000
   10      H       1.7309900000    -1.2925800000    -0.8759400000
 ----------------------------------------------------------------
 Nuclear Repulsion Energy =   152.2070838989 hartrees
 There are       20 alpha and       20 beta electrons
 Requested basis set is 6-31G(d,p)
 There are 35 shells and 94 basis functions

 Total QAlloc Memory Limit   2000 MB
 Mega-Array Size       188 MB
 MEM_STATIC part       192 MB
A total of 1 constraints
  
            1
    1   1.0100000
    2   1.0100000
    3   2.0100000
    4   1.5500000
    5   4.5000000
    6   0.1000000
    7   0.0000000
    8   0.0000000
    9   0.0000000
   10   0.0000000

                       Distance Matrix (Angstroms)
             S (  1)   C (  2)   C (  3)   C (  4)   H (  5)   H (  6)
   C (  2)  1.638920
   C (  3)  2.759395  1.506213
   C (  4)  2.759359  1.506201  2.538020
   H (  5)  3.479021  2.146144  1.098132  2.788920
   H (  6)  3.482063  2.146530  1.098087  2.786547  1.755294
   H (  7)  2.817405  2.161667  1.089459  3.481798  1.785080  1.785239
   H (  8)  2.817310  2.161639  3.481795  1.089472  3.787073  3.784837
   H (  9)  3.479591  2.146195  2.788322  1.098118  2.588841  3.125159
   H ( 10)  3.481397  2.146401  2.787054  1.098096  3.127160  2.584870
             H (  7)   H (  8)   H (  9)
   H (  8)  4.308860
   H (  9)  3.786993  1.785168
   H ( 10)  3.784817  1.785237  1.755295
 
 A cutoff of  1.0D-14 yielded    618 shell pairs
 There are      4559 function pairs
 
 -------------------------------------------------------
 OpenMP Integral Computing Module                       
 Release: version 1.0, May 2013, Q-Chem Inc. Pittsburgh 
 -------------------------------------------------------
 Integral Job Info:
 Integral job number is                      11
 Integral operator is                         1
 short-range coefficients                     0
 long-range coefficients              100000000
 Omega coefficients                           0
 if combine SR and LR in K                    0
 Integral screening is                        0
 Integral computing path is                   2
 max size of driver memory is            800000
 size of driver memory is                593474
 size of scratch memory is             15267112
 max col of scratch BK array               1296
 max len of scratch array in speh3          155
 max len of scratch index in speh4           18
 max int batch size is                      520
 min int batch size is                       52
 fixed nKL is                                52
 max L of basis functions is                  2
 order of int derivative is                   0
 number of shells is                         35
 number of basis is                          94
 number of cartesian basis is                94
 number of contracted shell pairs           618
 number of primitive shell pairs           2443
 maxK2 (contraction) of shell pair           36
 max number of K2 of shell pair               1
 max number of CS2 of shell pair             48
 max number of PS2 of shell pair            222
 mem total for path MDJ                  514716
 -------------------------------------------------------
 Smallest overlap matrix eigenvalue = 6.93E-03

 Scale SEOQF with 1.000000e-01/1.000000e-01/1.000000e+00

 Standard Electronic Orientation quadrupole field applied
 Nucleus-field energy     =     0.0000000013 hartrees
 Guess from superposition of atomic densities
 Warning:  Energy on first SCF cycle will be non-variational
 SAD guess density has 40.000000 electrons

 -----------------------------------------------------------------------
  General SCF calculation program by
  Eric Jon Sundstrom, Paul Horn, Yuezhi Mao, Dmitri Zuev, Alec White,
  David Stuck, Shaama M.S., Shane Yost, Joonho Lee, David Small,
  Daniel Levine, Susi Lehtola, Hugh Burton, Evgeny Epifanovsky
 -----------------------------------------------------------------------
 Exchange:     0.2000 Hartree-Fock + 0.0800 Slater + 0.7200 B88
 Correlation:  0.1900 VWN1RPA + 0.8100 LYP
 Using SG-1 standard quadrature grid
 using 16 threads for integral computing
 -------------------------------------------------------
 OpenMP Integral computing Module                
 Release: version 1.0, May 2013, Q-Chem Inc. Pittsburgh 
 -------------------------------------------------------
 -------------------------------------------------------
 OpenMP BLAS3 based DFT computing Module                
 Release: version 1.0, May 2013, Q-Chem Inc. Pittsburgh 
 -------------------------------------------------------
 A unrestricted SCF calculation will be
 performed using DIIS
 SCF converges when DIIS error is below 1.0e-06
 Alpha HF Exchange    Energy =  -4.28828252669850
 Beta HF Exchange     Energy =  -4.28828252669850
 DFT Correlation      Energy =  -1.80763191394565
 DFT Exchange         Energy = -33.52593705159316
 One-Electron (alpha) Energy = -503.08546878049015
 One-Electron (beta)  Energy = -503.08546878049015
 Total Coulomb        Energy = 381.25657315182411
 ---------------------------------------
  Cycle       Energy         DIIS error
 ---------------------------------------
    1    -516.6174145280      3.31e-02  
 Alpha HF Exchange    Energy =  -4.29023184334459
 Beta HF Exchange     Energy =  -4.29023184334459
 DFT Correlation      Energy =  -1.83337139189410
 DFT Exchange         Energy = -34.04952075423942
 One-Electron (alpha) Energy = -506.37838556688433
 One-Electron (beta)  Energy = -506.37838556688439
 Total Coulomb        Energy = 388.96566082763400
    2    -516.0473822388      3.88e-03  
 Alpha HF Exchange    Energy =  -4.24139685582587
 Beta HF Exchange     Energy =  -4.24139685582586
 DFT Correlation      Energy =  -1.81062855299925
 DFT Exchange         Energy = -33.64098843452591
 One-Electron (alpha) Energy = -503.26213910363361
 One-Electron (beta)  Energy = -503.26213910363299
 Total Coulomb        Energy = 382.20268551699269
    3    -516.0489194893      3.90e-03  
 Alpha HF Exchange    Energy =  -4.26342227367557
 Beta HF Exchange     Energy =  -4.26342227367557
 DFT Correlation      Energy =  -1.82162353665098
 DFT Exchange         Energy = -33.82449323207703
 One-Electron (alpha) Energy = -504.70370959761715
 One-Electron (beta)  Energy = -504.70370959761726
 Total Coulomb        Energy = 385.25509089865841
    4    -516.1182057125      3.14e-04  
 Alpha HF Exchange    Energy =  -4.26434889211916
 Beta HF Exchange     Energy =  -4.26434889211916
 DFT Correlation      Energy =  -1.82158543283963
 DFT Exchange         Energy = -33.83050496724548
 One-Electron (alpha) Energy = -504.78571321594120
 One-Electron (beta)  Energy = -504.78571321594126
 Total Coulomb        Energy = 385.42682686754438
    5    -516.1183038485      2.98e-04  
 Alpha HF Exchange    Energy =  -4.26432883607816
 Beta HF Exchange     Energy =  -4.26432883607817
 DFT Correlation      Energy =  -1.82180189034822
 DFT Exchange         Energy = -33.83145713140685
 One-Electron (alpha) Energy = -504.79031159681693
 One-Electron (beta)  Energy = -504.79031159681767
 Total Coulomb        Energy = 385.43670348252181
    6    -516.1187525049      7.53e-05  
 Alpha HF Exchange    Energy =  -4.26411158627075
 Beta HF Exchange     Energy =  -4.26411158627075
 DFT Correlation      Energy =  -1.82167978140349
 DFT Exchange         Energy = -33.82945319348433
 One-Electron (alpha) Energy = -504.76468035194381
 One-Electron (beta)  Energy = -504.76468035194392
 Total Coulomb        Energy = 385.38285463453735
    7    -516.1187783167      7.95e-06  
 Alpha HF Exchange    Energy =  -4.26414290653890
 Beta HF Exchange     Energy =  -4.26414290653890
 DFT Correlation      Energy =  -1.82169452251472
 DFT Exchange         Energy = -33.82970745188091
 One-Electron (alpha) Energy = -504.76853298869241
 One-Electron (beta)  Energy = -504.76853298869253
 Total Coulomb        Energy = 385.39089123192861
    8    -516.1187786328      7.35e-07  Convergence criterion met
 ---------------------------------------
 SCF time:   CPU 27.35s  wall 3.00s 
<S^2> =          0.000000000
 Alpha HF Exchange    Energy =  -4.26414290653890
 Beta HF Exchange     Energy =  -4.26414290653890
 DFT Correlation      Energy =  -1.82169452251472
 DFT Exchange         Energy = -33.82970745188091
 One-Electron (alpha) Energy = -504.76853298869241
 One-Electron (beta)  Energy = -504.76853298869253
 Total Coulomb        Energy = 385.39089123192861
 Nuclear repulsion Energy = 152.20708390012877
 SCF   energy in the final basis set =     -516.1187786328
 Total energy in the final basis set =     -516.1187786328
 
 --------------------------------------------------------------
 
                    Orbital Energies (a.u.)
 --------------------------------------------------------------
 
 Alpha MOs
 -- Occupied --
-88.854 -10.266 -10.200 -10.200  -7.917  -5.880  -5.880  -5.871
 -0.833  -0.712  -0.704  -0.528  -0.454  -0.445  -0.442  -0.404
 -0.376  -0.355  -0.283  -0.216
 -- Virtual --
 -0.070   0.081   0.097   0.145   0.150   0.156   0.169   0.174
  0.221   0.233   0.315   0.370   0.432   0.435   0.499   0.501
  0.549   0.581   0.597   0.656   0.696   0.702   0.739   0.771
  0.805   0.812   0.851   0.875   0.889   0.894   0.905   0.940
  0.941   1.067   1.089   1.247   1.295   1.410   1.468   1.675
  1.715   1.820   1.858   1.868   1.907   2.016   2.023   2.032
  2.050   2.082   2.088   2.142   2.303   2.352   2.372   2.501
  2.575   2.584   2.690   2.690   2.803   2.849   2.889   2.927
  3.158   3.204   3.381   3.398   3.420   3.459   3.954   4.168
  4.470   4.528
 
 Beta MOs
 -- Occupied --
-88.854 -10.266 -10.200 -10.200  -7.917  -5.880  -5.880  -5.871
 -0.833  -0.712  -0.704  -0.528  -0.454  -0.445  -0.442  -0.404
 -0.376  -0.355  -0.283  -0.216
 -- Virtual --
 -0.070   0.081   0.097   0.145   0.150   0.156   0.169   0.174
  0.221   0.233   0.315   0.370   0.432   0.435   0.499   0.501
  0.549   0.581   0.597   0.656   0.696   0.702   0.739   0.771
  0.805   0.812   0.851   0.875   0.889   0.894   0.905   0.940
  0.941   1.067   1.089   1.247   1.295   1.410   1.468   1.675
  1.715   1.820   1.858   1.868   1.907   2.016   2.023   2.032
  2.050   2.082   2.088   2.142   2.303   2.352   2.372   2.501
  2.575   2.584   2.690   2.690   2.803   2.849   2.889   2.927
  3.158   3.204   3.381   3.398   3.420   3.459   3.954   4.168
  4.470   4.528
 --------------------------------------------------------------
 
          Ground-State Mulliken Net Atomic Charges

     Atom                 Charge (a.u.)    Spin (a.u.)
  --------------------------------------------------------
      1 S                    -0.133431       0.000000
      2 C                    -0.011157      -0.000000
      3 C                    -0.334848       0.000000
      4 C                    -0.334841       0.000000
      5 H                     0.130962      -0.000000
      6 H                     0.130742      -0.000000
      7 H                     0.145435       0.000000
      8 H                     0.145434       0.000000
      9 H                     0.130915      -0.000000
     10 H                     0.130789      -0.000000
  --------------------------------------------------------
  Sum of atomic charges =     0.000000
  Sum of spin   charges =     0.000000

 -----------------------------------------------------------------
                    Cartesian Multipole Moments
 -----------------------------------------------------------------
    Charge (ESU x 10^10)
                 0.0000
    Dipole Moment (Debye)
         X       3.0657      Y       0.0004      Z       0.0029
       Tot       3.0657
    Quadrupole Moments (Debye-Ang)
        XX     -33.1205     XY      -0.0000     YY     -32.0361
        XZ       0.0008     YZ       0.0006     ZZ     -32.1518
    Octopole Moments (Debye-Ang^2)
       XXX       4.1156    XXY       0.0016    XYY       3.5570
       YYY       0.0069    XXZ       0.0088    XYZ       0.0015
       YYZ       0.0099    XZZ       1.9002    YZZ       0.0020
       ZZZ       0.0471
    Hexadecapole Moments (Debye-Ang^3)
      XXXX    -306.9130   XXXY      -0.0054   XXYY     -90.8179
      XYYY      -0.0095   YYYY    -200.6063   XXXZ      -0.0899
      XXYZ       0.0015   XYYZ      -0.0115   YYYZ      -0.0042
      XXZZ     -56.1246   XYZZ      -0.0021   YYZZ     -43.4101
      XZZZ      -0.0407   YZZZ       0.0049   ZZZZ     -49.3074
 -----------------------------------------------------------------
 Calculating analytic gradient of the SCF energy
 Gradient of SCF Energy
            1           2           3           4           5           6
    1  -0.0002929  -0.0000849   0.0000670   0.0000710   0.0001137   0.0001144
    2  -0.0000035  -0.0000038   0.0000147  -0.0000153  -0.0001452  -0.0001473
    3   0.0000109   0.0000006  -0.0000057   0.0000044  -0.0001413   0.0001505
            7           8           9          10
    1  -0.0001020  -0.0001126   0.0001116   0.0001147
    2  -0.0001493   0.0001457   0.0001511   0.0001528
    3  -0.0000100  -0.0000104  -0.0001462   0.0001471
 Max gradient component =       2.929E-04
 RMS gradient           =       1.149E-04
 Gradient time:  CPU 8.36 s  wall 3.83 s
 Geometry Optimization Parameters
   NAtoms,    NIC,     NZ,  NCons,   NDum,   NFix, NCnnct, MaxDiis
       10      56       0       1       0       0       0       0


** CONSTRAINED OPTIMIZATION IN DELOCALIZED INTERNAL COORDINATES **
   Searching for a Minimum

   Optimization Cycle:   1

                       Coordinates (Angstroms)
     ATOM                X               Y               Z
      1  S        -1.3809800000   -0.0002200000   -0.0009700000
      2  C         0.2579400000   -0.0000200000   -0.0004700000
      3  C         1.0691500000    1.2690800000    0.0001500000
      4  C         1.0694100000   -1.2689400000    0.0001700000
      5  H         1.7254300000    1.2948900000    0.8802200000
      6  H         1.7319200000    1.2922900000   -0.8750600000
      7  H         0.4342900000    2.1544400000   -0.0033200000
      8  H         0.4346900000   -2.1544200000   -0.0019200000
      9  H         1.7268900000   -1.2939500000    0.8793500000
     10  H         1.7309900000   -1.2925800000   -0.8759400000
   Point Group: c1    Number of degrees of freedom:    24


   Energy is   -516.118778633

              Constraints and their Current Values
                                        Value     Constraint
   Distance(Angs):        1   2             1.638920     1.550000

 Attempting to Generate Delocalized Internal Coordinates

   Using Lagrange Multiplier Algorithm


 25 Hessian modes will be used to form the next step
  Hessian Eigenvalues:
    -0.802452    0.045000    0.045000    0.045000    0.092945    0.092948
     0.095814    0.095817    0.160000    0.160000    0.160000    0.160000
     0.160000    0.160000    0.250000    0.250000    0.317342    0.317354
     0.338896    0.338911    0.338935    0.338945    0.348738    0.348752
     1.246180

 Minimum Search - Taking P-RFO Step
 Searching for Lamda that Maximizes Along the Constraint modes Only
 Value Taken    Lamda =   0.02080477
 Searching for Lamda that Minimizes Along All other modes
 Value Taken    Lamda =  -0.00885694
 Step Taken.  Stepsize is  0.165091

                             Maximum     Tolerance    Cnvgd?
         Gradient            0.168035       0.000300      NO
         Displacement        0.164990       0.001200      NO
         Energy change     *********       0.000001      NO


 New Cartesian Coordinates Obtained by Inverse Iteration

 Displacement from previous Coordinates is:  0.160498
 ----------------------------------------------------------------
             Standard Nuclear Orientation (Angstroms)
    I     Atom           X                Y                Z
 ----------------------------------------------------------------
    1      S      -1.3007336513    -0.0001671342    -0.0010248282
    2      C       0.2508776012    -0.0000095898    -0.0005123060
    3      C       1.0604490565     1.2706281550     0.0001492077
    4      C       1.0607173374    -1.2704833106     0.0001633695
    5      H       1.7162252597     1.2982014794     0.8806332750
    6      H       1.7226574016     1.2957198974    -0.8755371743
    7      H       0.4248229768     2.1555515671    -0.0032117718
    8      H       0.4252700170    -2.1555379547    -0.0018248997
    9      H       1.7176867770    -1.2972954594     0.8797739736
   10      H       1.7217572241    -1.2960376503    -0.8763988457
 ----------------------------------------------------------------
 Nuclear Repulsion Energy =   155.3354992462 hartrees
 There are       20 alpha and       20 beta electrons

                       Distance Matrix (Angstroms)
             S (  1)   C (  2)   C (  3)   C (  4)   H (  5)   H (  6)
   C (  2)  1.551611
   C (  3)  2.681437  1.506628
   C (  4)  2.681447  1.506633  2.541111
   H (  5)  3.400753  2.146861  1.098205  2.793396
   H (  6)  3.403673  2.147259  1.098169  2.791131  1.756184
   H (  7)  2.761281  2.162570  1.089551  3.484550  1.784363  1.784555
   H (  8)  2.761288  2.162572  3.484547  1.089550  3.791255  3.789165
   H (  9)  3.401354  2.146948  2.792836  1.098200  2.595497  3.131273
   H ( 10)  3.403088  2.147173  2.791673  1.098175  3.133252  2.591758
             H (  7)   H (  8)   H (  9)
   H (  8)  4.311090
   H (  9)  3.791215  1.784415
   H ( 10)  3.789190  1.784517  1.756178
 
 Applying Cartesian multipole field
    Component          Value
    ---------          -----
     (2,0,0)        1.00000E-11
     (0,2,0)        2.00000E-11
     (0,0,2)       -3.00000E-10
 Nucleus-field energy     =     0.0000000011 hartrees
 Requested basis set is 6-31G(d,p)
 There are 35 shells and 94 basis functions
 A cutoff of  1.0D-14 yielded    620 shell pairs
 There are      4567 function pairs
 Smallest overlap matrix eigenvalue = 6.93E-03
 Guess from superposition of atomic densities
 Warning:  Energy on first SCF cycle will be non-variational
 SAD guess density has 40.000000 electrons

 -----------------------------------------------------------------------
  General SCF calculation program by
  Eric Jon Sundstrom, Paul Horn, Yuezhi Mao, Dmitri Zuev, Alec White,
  David Stuck, Shaama M.S., Shane Yost, Joonho Lee, David Small,
  Daniel Levine, Susi Lehtola, Hugh Burton, Evgeny Epifanovsky
 -----------------------------------------------------------------------
 Exchange:     0.2000 Hartree-Fock + 0.0800 Slater + 0.7200 B88
 Correlation:  0.1900 VWN1RPA + 0.8100 LYP
 Using SG-1 standard quadrature grid
 using 16 threads for integral computing
 -------------------------------------------------------
 OpenMP Integral computing Module                
 Release: version 1.0, May 2013, Q-Chem Inc. Pittsburgh 
 -------------------------------------------------------
 -------------------------------------------------------
 OpenMP BLAS3 based DFT computing Module                
 Release: version 1.0, May 2013, Q-Chem Inc. Pittsburgh 
 -------------------------------------------------------
 A unrestricted SCF calculation will be
 performed using DIIS
 SCF converges when DIIS error is below 1.0e-06
 Alpha HF Exchange    Energy =  -4.29956342605589
 Beta HF Exchange     Energy =  -4.29956342605589
 DFT Correlation      Energy =  -1.81028029525574
 DFT Exchange         Energy = -33.54998473492311
 One-Electron (alpha) Energy = -506.14554037094626
 One-Electron (beta)  Energy = -506.14554037094626
 Total Coulomb        Energy = 384.17503176195743
 ---------------------------------------
  Cycle       Energy         DIIS error
 ---------------------------------------
    1    -516.7399416149      3.48e-02  
 Alpha HF Exchange    Energy =  -4.29701269515020
 Beta HF Exchange     Energy =  -4.29701269515020
 DFT Correlation      Energy =  -1.83721006631936
 DFT Exchange         Energy = -34.09917417269804
 One-Electron (alpha) Energy = -509.61424599275460
 One-Electron (beta)  Energy = -509.61424599275438
 Total Coulomb        Energy = 392.38497513231664
    2    -516.0384272352      3.94e-03  
 Alpha HF Exchange    Energy =  -4.24555207079081
 Beta HF Exchange     Energy =  -4.24555207079081
 DFT Correlation      Energy =  -1.81234751156472
 DFT Exchange         Energy = -33.66389721766345
 One-Electron (alpha) Energy = -506.19857796369206
 One-Electron (beta)  Energy = -506.19857796369217
 Total Coulomb        Energy = 384.99960645585338
    3    -516.0293990950      4.19e-03  
 Alpha HF Exchange    Energy =  -4.26910832669905
 Beta HF Exchange     Energy =  -4.26910832669905
 DFT Correlation      Energy =  -1.82509753953377
 DFT Exchange         Energy = -33.86476894525255
 One-Electron (alpha) Energy = -507.84643592946213
 One-Electron (beta)  Energy = -507.84643592946213
 Total Coulomb        Energy = 388.47737778175156
    4    -516.1080779680      9.21e-04  
 Alpha HF Exchange    Energy =  -4.26978333081206
 Beta HF Exchange     Energy =  -4.26978333081206
 DFT Correlation      Energy =  -1.82473156493809
 DFT Exchange         Energy = -33.86774220743251
 One-Electron (alpha) Energy = -507.87679984927860
 One-Electron (beta)  Energy = -507.87679984927837
 Total Coulomb        Energy = 388.53780981208877
    5    -516.1123310731      1.75e-04  
 Alpha HF Exchange    Energy =  -4.27003067827144
 Beta HF Exchange     Energy =  -4.27003067827144
 DFT Correlation      Energy =  -1.82487891380847
 DFT Exchange         Energy = -33.87020107378709
 One-Electron (alpha) Energy = -507.90953101417085
 One-Electron (beta)  Energy = -507.90953101417091
 Total Coulomb        Energy = 388.60625076836311
    6    -516.1124533568      5.52e-05  
 Alpha HF Exchange    Energy =  -4.26981761095220
 Beta HF Exchange     Energy =  -4.26981761095219
 DFT Correlation      Energy =  -1.82479328072679
 DFT Exchange         Energy = -33.86839196139748
 One-Electron (alpha) Energy = -507.88453368038870
 One-Electron (beta)  Energy = -507.88453368038819
 Total Coulomb        Energy = 388.55392084050771
    7    -516.1124677370      8.31e-06  
 Alpha HF Exchange    Energy =  -4.26984948978584
 Beta HF Exchange     Energy =  -4.26984948978585
 DFT Correlation      Energy =  -1.82480698275515
 DFT Exchange         Energy = -33.86864527687267
 One-Electron (alpha) Energy = -507.88856614903204
 One-Electron (beta)  Energy = -507.88856614903239
 Total Coulomb        Energy = 388.56231620115761
    8    -516.1124680888      6.44e-07  Convergence criterion met
 ---------------------------------------
 SCF time:   CPU 27.58s  wall 2.00s 
<S^2> =         -0.000000000
 Alpha HF Exchange    Energy =  -4.26984948978584
 Beta HF Exchange     Energy =  -4.26984948978585
 DFT Correlation      Energy =  -1.82480698275515
 DFT Exchange         Energy = -33.86864527687267
 One-Electron (alpha) Energy = -507.88856614903204
 One-Electron (beta)  Energy = -507.88856614903239
 Total Coulomb        Energy = 388.56231620115761
 Nuclear repulsion Energy = 155.33549924733975
 SCF   energy in the final basis set =     -516.1124680888
 Total energy in the final basis set =     -516.1124680888
 
 --------------------------------------------------------------
 
                    Orbital Energies (a.u.)
 --------------------------------------------------------------
 
 Alpha MOs
 -- Occupied --
-88.849 -10.255 -10.196 -10.196  -7.915  -5.878  -5.878  -5.870
 -0.845  -0.713  -0.710  -0.522  -0.453  -0.444  -0.441  -0.402
 -0.374  -0.360  -0.295  -0.214
 -- Virtual --
 -0.060   0.083   0.113   0.148   0.152   0.158   0.171   0.172
  0.223   0.230   0.317   0.363   0.439   0.467   0.503   0.506
  0.549   0.590   0.597   0.670   0.690   0.706   0.744   0.764
  0.801   0.808   0.854   0.879   0.886   0.897   0.908   0.943
  0.943   1.086   1.149   1.280   1.298   1.411   1.496   1.677
  1.728   1.822   1.862   1.891   1.930   2.020   2.027   2.053
  2.055   2.087   2.091   2.162   2.305   2.371   2.376   2.503
  2.581   2.605   2.695   2.695   2.806   2.855   2.893   2.939
  3.162   3.207   3.384   3.402   3.423   3.464   3.977   4.180
  4.474   4.542
 
 Beta MOs
 -- Occupied --
-88.849 -10.255 -10.196 -10.196  -7.915  -5.878  -5.878  -5.870
 -0.845  -0.713  -0.710  -0.522  -0.453  -0.444  -0.441  -0.402
 -0.374  -0.360  -0.295  -0.214
 -- Virtual --
 -0.060   0.083   0.113   0.148   0.152   0.158   0.171   0.172
  0.223   0.230   0.317   0.363   0.439   0.467   0.503   0.506
  0.549   0.590   0.597   0.670   0.690   0.706   0.744   0.764
  0.801   0.808   0.854   0.879   0.886   0.897   0.908   0.943
  0.943   1.086   1.149   1.280   1.298   1.411   1.496   1.677
  1.728   1.822   1.862   1.891   1.930   2.020   2.027   2.053
  2.055   2.087   2.091   2.162   2.305   2.371   2.376   2.503
  2.581   2.605   2.695   2.695   2.806   2.855   2.893   2.939
  3.162   3.207   3.384   3.402   3.423   3.464   3.977   4.180
  4.474   4.542
 --------------------------------------------------------------
 
          Ground-State Mulliken Net Atomic Charges

     Atom                 Charge (a.u.)    Spin (a.u.)
  --------------------------------------------------------
      1 S                    -0.128355       0.000000
      2 C                     0.006226      -0.000000
      3 C                    -0.335013      -0.000000
      4 C                    -0.335013       0.000000
      5 H                     0.127604      -0.000000
      6 H                     0.127397      -0.000000
      7 H                     0.141077      -0.000000
      8 H                     0.141077      -0.000000
      9 H                     0.127558       0.000000
     10 H                     0.127443       0.000000
  --------------------------------------------------------
  Sum of atomic charges =    -0.000000
  Sum of spin   charges =    -0.000000

 -----------------------------------------------------------------
                    Cartesian Multipole Moments
 -----------------------------------------------------------------
    Charge (ESU x 10^10)
                -0.0000
    Dipole Moment (Debye)
         X       2.7582      Y       0.0003      Z       0.0028
       Tot       2.7582
    Quadrupole Moments (Debye-Ang)
        XX     -33.0606     XY      -0.0002     YY     -32.0893
        XZ       0.0005     YZ       0.0006     ZZ     -31.8956
    Octopole Moments (Debye-Ang^2)
       XXX       0.5863    XXY       0.0008    XYY       2.0970
       YYY       0.0040    XXZ       0.0093    XYZ       0.0014
       YYZ       0.0109    XZZ       0.5712    YZZ       0.0012
       ZZZ       0.0481
    Hexadecapole Moments (Debye-Ang^3)
      XXXX    -289.6224   XXXY      -0.0025   XXYY     -87.8401
      XYYY      -0.0061   YYYY    -202.0608   XXXZ      -0.0896
      XXYZ       0.0014   XYYZ      -0.0123   YYYZ      -0.0042
      XXZZ     -52.8465   XYZZ      -0.0008   YYZZ     -43.4909
      XZZZ      -0.0407   YZZZ       0.0047   ZZZZ     -48.6546
 -----------------------------------------------------------------
 Calculating analytic gradient of the SCF energy
 Gradient of SCF Energy
            1           2           3           4           5           6
    1   0.0828233  -0.0714845  -0.0056307  -0.0056298  -0.0000922  -0.0000870
    2   0.0000090  -0.0000059  -0.0007690   0.0007627  -0.0004328  -0.0004412
    3   0.0000413  -0.0000248  -0.0000113  -0.0000069   0.0001201  -0.0001131
            7           8           9          10
    1   0.0001396   0.0001393  -0.0000911  -0.0000869
    2   0.0001243  -0.0001230   0.0004352   0.0004406
    3  -0.0000043  -0.0000050   0.0001180  -0.0001140
 Max gradient component =       8.282E-02
 RMS gradient           =       2.003E-02
 Gradient time:  CPU 8.21 s  wall 0.68 s
 Geometry Optimization Parameters
   NAtoms,    NIC,     NZ,  NCons,   NDum,   NFix, NCnnct, MaxDiis
       10      56       0       1       0       0       0       0

 Cartesian Hessian Update
 Hessian Updated using BFGS Update


** CONSTRAINED OPTIMIZATION IN DELOCALIZED INTERNAL COORDINATES **
   Searching for a Minimum

   Optimization Cycle:   2

                       Coordinates (Angstroms)
     ATOM                X               Y               Z
      1  S        -1.3007336513   -0.0001671342   -0.0010248282
      2  C         0.2508776012   -0.0000095898   -0.0005123060
      3  C         1.0604490565    1.2706281550    0.0001492077
      4  C         1.0607173374   -1.2704833106    0.0001633695
      5  H         1.7162252597    1.2982014794    0.8806332750
      6  H         1.7226574016    1.2957198974   -0.8755371743
      7  H         0.4248229768    2.1555515671   -0.0032117718
      8  H         0.4252700170   -2.1555379547   -0.0018248997
      9  H         1.7176867770   -1.2972954594    0.8797739736
     10  H         1.7217572241   -1.2960376503   -0.8763988457
   Point Group: c1    Number of degrees of freedom:    24


   Energy is   -516.112468089

              Constraints and their Current Values
                                        Value     Constraint
   Distance(Angs):        1   2             1.551611     1.550000
 Hessian Updated using BFGS Update

   Using Lagrange Multiplier Algorithm


 21 Hessian modes will be used to form the next step
  Hessian Eigenvalues:
    -0.781012    0.045000    0.045000    0.045000    0.092945    0.092948
     0.095808    0.095816    0.159988    0.160188    0.250000    0.255036
     0.317348    0.319495    0.338896    0.338911    0.338935    0.338946
     0.348738    0.348752    1.285035

 Minimum Search - Taking P-RFO Step
 Searching for Lamda that Maximizes Along the Constraint modes Only
 Value Taken    Lamda =   0.00010460
 Searching for Lamda that Minimizes Along All other modes
 Value Taken    Lamda =  -0.00042791
 Step Taken.  Stepsize is  0.038856

                             Maximum     Tolerance    Cnvgd?
         Gradient            0.011396       0.000300      NO
         Displacement        0.028508       0.001200      NO
         Energy change      0.006311       0.000001      NO


 New Cartesian Coordinates Obtained by Inverse Iteration

 Displacement from previous Coordinates is:  0.064198
 ----------------------------------------------------------------
             Standard Nuclear Orientation (Angstroms)
    I     Atom           X                Y                Z
 ----------------------------------------------------------------
    1      S      -1.3173526935    -0.0001732174    -0.0011442959
    2      C       0.2326473610    -0.0000107954    -0.0005500230
    3      C       1.0624417836     1.2660544478     0.0001616914
    4      C       1.0627072777    -1.2659038654     0.0001738827
    5      H       1.7190206151     1.2900392008     0.8800964813
    6      H       1.7253426203     1.2876312121    -0.8750441098
    7      H       0.4347801955     2.1566123065    -0.0031095388
    8      H       0.4352302383    -2.1565955437    -0.0017319692
    9      H       1.7204535897    -1.2891322817     0.8792520940
   10      H       1.7244590122    -1.2879514635    -0.8758942126
 ----------------------------------------------------------------
 Nuclear Repulsion Energy =   154.9960420618 hartrees
 There are       20 alpha and       20 beta electrons

                       Distance Matrix (Angstroms)
             S (  1)   C (  2)   C (  3)   C (  4)   H (  5)   H (  6)
   C (  2)  1.550000
   C (  3)  2.695692  1.513764
   C (  4)  2.695693  1.513765  2.531958
   H (  5)  3.414791  2.156171  1.098160  2.781700
   H (  6)  3.417621  2.156595  1.098129  2.779502  1.755154
   H (  7)  2.778794  2.166077  1.089524  3.479644  1.783333  1.783522
   H (  8)  2.778796  2.166079  3.479645  1.089524  3.782199  3.780180
   H (  9)  3.415374  2.156259  2.781143  1.098157  2.579172  3.117257
   H ( 10)  3.417042  2.156507  2.780052  1.098133  3.119226  2.575583
             H (  7)   H (  8)   H (  9)
   H (  8)  4.313208
   H (  9)  3.782152  1.783374
   H ( 10)  3.780217  1.783483  1.755151
 
 Applying Cartesian multipole field
    Component          Value
    ---------          -----
     (2,0,0)        1.00000E-11
     (0,2,0)        2.00000E-11
     (0,0,2)       -3.00000E-10
 Nucleus-field energy     =     0.0000000011 hartrees
 Requested basis set is 6-31G(d,p)
 There are 35 shells and 94 basis functions
 A cutoff of  1.0D-14 yielded    620 shell pairs
 There are      4567 function pairs
 Smallest overlap matrix eigenvalue = 7.03E-03
 Guess from superposition of atomic densities
 Warning:  Energy on first SCF cycle will be non-variational
 SAD guess density has 40.000000 electrons

 -----------------------------------------------------------------------
  General SCF calculation program by
  Eric Jon Sundstrom, Paul Horn, Yuezhi Mao, Dmitri Zuev, Alec White,
  David Stuck, Shaama M.S., Shane Yost, Joonho Lee, David Small,
  Daniel Levine, Susi Lehtola, Hugh Burton, Evgeny Epifanovsky
 -----------------------------------------------------------------------
 Exchange:     0.2000 Hartree-Fock + 0.0800 Slater + 0.7200 B88
 Correlation:  0.1900 VWN1RPA + 0.8100 LYP
 Using SG-1 standard quadrature grid
 using 16 threads for integral computing
 -------------------------------------------------------
 OpenMP Integral computing Module                
 Release: version 1.0, May 2013, Q-Chem Inc. Pittsburgh 
 -------------------------------------------------------
 -------------------------------------------------------
 OpenMP BLAS3 based DFT computing Module                
 Release: version 1.0, May 2013, Q-Chem Inc. Pittsburgh 
 -------------------------------------------------------
 A unrestricted SCF calculation will be
 performed using DIIS
 SCF converges when DIIS error is below 1.0e-06
 Alpha HF Exchange    Energy =  -4.29805636405206
 Beta HF Exchange     Energy =  -4.29805636405206
 DFT Correlation      Energy =  -1.80993666126980
 DFT Exchange         Energy = -33.54715576939207
 One-Electron (alpha) Energy = -505.81067490809517
 One-Electron (beta)  Energy = -505.81067490809517
 Total Coulomb        Energy = 383.85209653096445
 ---------------------------------------
  Cycle       Energy         DIIS error
 ---------------------------------------
    1    -516.7264163811      3.47e-02  
 Alpha HF Exchange    Energy =  -4.29633610449779
 Beta HF Exchange     Energy =  -4.29633610449778
 DFT Correlation      Energy =  -1.83678366405125
 DFT Exchange         Energy = -34.09428753087843
 One-Electron (alpha) Energy = -509.25453253598471
 One-Electron (beta)  Energy = -509.25453253598459
 Total Coulomb        Energy = 391.99818914683357
    2    -516.0385772661      3.94e-03  
 Alpha HF Exchange    Energy =  -4.24520333123808
 Beta HF Exchange     Energy =  -4.24520333123808
 DFT Correlation      Energy =  -1.81203502310091
 DFT Exchange         Energy = -33.66152686388136
 One-Electron (alpha) Energy = -505.88015280833889
 One-Electron (beta)  Energy = -505.88015280833935
 Total Coulomb        Energy = 384.69933289385602
    3    -516.0288992093      4.20e-03  
 Alpha HF Exchange    Energy =  -4.26853040251759
 Beta HF Exchange     Energy =  -4.26853040251760
 DFT Correlation      Energy =  -1.82471253845972
 DFT Exchange         Energy = -33.86062552199535
 One-Electron (alpha) Energy = -507.50197748691539
 One-Electron (beta)  Energy = -507.50197748691556
 Total Coulomb        Energy = 388.12226162623756
    4    -516.1080501501      9.20e-04  
 Alpha HF Exchange    Energy =  -4.26924263722197
 Beta HF Exchange     Energy =  -4.26924263722197
 DFT Correlation      Energy =  -1.82435452046069
 DFT Exchange         Energy = -33.86387189443637
 One-Electron (alpha) Energy = -507.53441628102445
 One-Electron (beta)  Energy = -507.53441628102445
 Total Coulomb        Energy = 388.18720740205981
    5    -516.1122947864      1.82e-04  
 Alpha HF Exchange    Energy =  -4.26950739916371
 Beta HF Exchange     Energy =  -4.26950739916371
 DFT Correlation      Energy =  -1.82451305087555
 DFT Exchange         Energy = -33.86649464198467
 One-Electron (alpha) Energy = -507.56947521182519
 One-Electron (beta)  Energy = -507.56947521182502
 Total Coulomb        Energy = 388.26050399383945
    6    -516.1124268581      5.79e-05  
 Alpha HF Exchange    Energy =  -4.26928490848259
 Beta HF Exchange     Energy =  -4.26928490848259
 DFT Correlation      Energy =  -1.82442244926324
 DFT Exchange         Energy = -33.86460248848893
 One-Electron (alpha) Energy = -507.54340376605882
 One-Electron (beta)  Energy = -507.54340376605876
 Total Coulomb        Energy = 388.20591749176708
    7    -516.1124427321      8.35e-06  
 Alpha HF Exchange    Energy =  -4.26931732792478
 Beta HF Exchange     Energy =  -4.26931732792478
 DFT Correlation      Energy =  -1.82443637145821
 DFT Exchange         Energy = -33.86486006011312
 One-Electron (alpha) Energy = -507.54747287962493
 One-Electron (beta)  Energy = -507.54747287962505
 Total Coulomb        Energy = 388.21439169652280
    8    -516.1124430872      6.80e-07  Convergence criterion met
 ---------------------------------------
 SCF time:   CPU 28.19s  wall 2.00s 
<S^2> =         -0.000000000
 Alpha HF Exchange    Energy =  -4.26931732792478
 Beta HF Exchange     Energy =  -4.26931732792478
 DFT Correlation      Energy =  -1.82443637145821
 DFT Exchange         Energy = -33.86486006011312
 One-Electron (alpha) Energy = -507.54747287962493
 One-Electron (beta)  Energy = -507.54747287962505
 Total Coulomb        Energy = 388.21439169652280
 Nuclear repulsion Energy = 154.99604206294083
 SCF   energy in the final basis set =     -516.1124430872
 Total energy in the final basis set =     -516.1124430872
 
 --------------------------------------------------------------
 
                    Orbital Energies (a.u.)
 --------------------------------------------------------------
 
 Alpha MOs
 -- Occupied --
-88.850 -10.256 -10.196 -10.196  -7.916  -5.879  -5.879  -5.871
 -0.843  -0.714  -0.708  -0.522  -0.452  -0.443  -0.441  -0.401
 -0.372  -0.362  -0.296  -0.215
 -- Virtual --
 -0.060   0.083   0.113   0.147   0.152   0.158   0.172   0.172
  0.221   0.228   0.315   0.362   0.437   0.465   0.506   0.507
  0.550   0.588   0.601   0.670   0.687   0.704   0.745   0.766
  0.800   0.807   0.854   0.879   0.886   0.897   0.909   0.941
  0.944   1.079   1.150   1.277   1.302   1.418   1.491   1.675
  1.722   1.819   1.858   1.881   1.929   2.020   2.028   2.053
  2.056   2.087   2.092   2.157   2.313   2.372   2.379   2.496
  2.577   2.602   2.694   2.699   2.804   2.854   2.889   2.936
  3.160   3.207   3.385   3.402   3.424   3.465   3.975   4.179
  4.474   4.541
 
 Beta MOs
 -- Occupied --
-88.850 -10.256 -10.196 -10.196  -7.916  -5.879  -5.879  -5.871
 -0.843  -0.714  -0.708  -0.522  -0.452  -0.443  -0.441  -0.401
 -0.372  -0.362  -0.296  -0.215
 -- Virtual --
 -0.060   0.083   0.113   0.147   0.152   0.158   0.172   0.172
  0.221   0.228   0.315   0.362   0.437   0.465   0.506   0.507
  0.550   0.588   0.601   0.670   0.687   0.704   0.745   0.766
  0.800   0.807   0.854   0.879   0.886   0.897   0.909   0.941
  0.944   1.079   1.150   1.277   1.302   1.418   1.491   1.675
  1.722   1.819   1.858   1.881   1.929   2.020   2.028   2.053
  2.056   2.087   2.092   2.157   2.313   2.372   2.379   2.496
  2.577   2.602   2.694   2.699   2.804   2.854   2.889   2.936
  3.160   3.207   3.385   3.402   3.424   3.465   3.975   4.179
  4.474   4.541
 --------------------------------------------------------------
 
          Ground-State Mulliken Net Atomic Charges

     Atom                 Charge (a.u.)    Spin (a.u.)
  --------------------------------------------------------
      1 S                    -0.124919      -0.000000
      2 C                     0.007014       0.000000
      3 C                    -0.335953      -0.000000
      4 C                    -0.335952       0.000000
      5 H                     0.127782       0.000000
      6 H                     0.127588       0.000000
      7 H                     0.139536       0.000000
      8 H                     0.139536       0.000000
      9 H                     0.127737      -0.000000
     10 H                     0.127632      -0.000000
  --------------------------------------------------------
  Sum of atomic charges =    -0.000000
  Sum of spin   charges =     0.000000

 -----------------------------------------------------------------
                    Cartesian Multipole Moments
 -----------------------------------------------------------------
    Charge (ESU x 10^10)
                -0.0000
    Dipole Moment (Debye)
         X       2.7323      Y       0.0003      Z       0.0028
       Tot       2.7323
    Quadrupole Moments (Debye-Ang)
        XX     -33.0227     XY      -0.0002     YY     -32.1651
        XZ       0.0002     YZ       0.0005     ZZ     -31.9028
    Octopole Moments (Debye-Ang^2)
       XXX       1.3762    XXY       0.0008    XYY       2.3630
       YYY       0.0042    XXZ       0.0109    XYZ       0.0014
       YYZ       0.0128    XZZ       0.7867    YZZ       0.0012
       ZZZ       0.0522
    Hexadecapole Moments (Debye-Ang^3)
      XXXX    -292.7473   XXXY      -0.0029   XXYY     -88.2451
      XYYY      -0.0068   YYYY    -201.4839   XXXZ      -0.0970
      XXYZ       0.0014   XYYZ      -0.0158   YYYZ      -0.0042
      XXZZ     -53.3772   XYZZ      -0.0011   YYZZ     -43.3598
      XZZZ      -0.0483   YZZZ       0.0046   ZZZZ     -48.6317
 -----------------------------------------------------------------
 Calculating analytic gradient of the SCF energy
 Gradient of SCF Energy
            1           2           3           4           5           6
    1   0.0821798  -0.0804269  -0.0017556  -0.0017560   0.0003827   0.0003911
    2   0.0000086  -0.0000080  -0.0003674   0.0003656   0.0001091   0.0001054
    3   0.0000447  -0.0000337  -0.0000086  -0.0000068   0.0000012   0.0000054
            7           8           9          10
    1   0.0001052   0.0001053   0.0003840   0.0003904
    2  -0.0003456   0.0003461  -0.0001084  -0.0001053
    3  -0.0000036  -0.0000036   0.0000002   0.0000048
 Max gradient component =       8.218E-02
 RMS gradient           =       2.100E-02
 Gradient time:  CPU 8.24 s  wall 0.69 s
 Geometry Optimization Parameters
   NAtoms,    NIC,     NZ,  NCons,   NDum,   NFix, NCnnct, MaxDiis
       10      56       0       1       0       0       0       0

 Cartesian Hessian Update
 Hessian Updated using BFGS Update


** CONSTRAINED OPTIMIZATION IN DELOCALIZED INTERNAL COORDINATES **
   Searching for a Minimum

   Optimization Cycle:   3

                       Coordinates (Angstroms)
     ATOM                X               Y               Z
      1  S        -1.3173526935   -0.0001732174   -0.0011442959
      2  C         0.2326473610   -0.0000107954   -0.0005500230
      3  C         1.0624417836    1.2660544478    0.0001616914
      4  C         1.0627072777   -1.2659038654    0.0001738827
      5  H         1.7190206151    1.2900392008    0.8800964813
      6  H         1.7253426203    1.2876312121   -0.8750441098
      7  H         0.4347801955    2.1566123065   -0.0031095388
      8  H         0.4352302383   -2.1565955437   -0.0017319692
      9  H         1.7204535897   -1.2891322817    0.8792520940
     10  H         1.7244590122   -1.2879514635   -0.8758942126
   Point Group: c1    Number of degrees of freedom:    24


   Energy is   -516.112443087

              Constraints and their Current Values
                                        Value     Constraint
   Distance(Angs):        1   2             1.550000     1.550000
 Hessian Updated using BFGS Update

 20 Hessian modes will be used to form the next step
  Hessian Eigenvalues:
     0.044998    0.045000    0.045000    0.092945    0.092948    0.094997
     0.095816    0.159976    0.160000    0.163983    0.221277    0.250000
     0.302735    0.317348    0.338902    0.338922    0.338941    0.340503
     0.348745    0.351492

 Minimum Search - Taking Simple RFO Step
 Searching for Lamda that Minimizes Along All modes
 Value Taken    Lamda =  -0.00002568
 Step Taken.  Stepsize is  0.011905

                             Maximum     Tolerance    Cnvgd?
         Gradient           0.001302      0.000300      NO
         Displacement       0.006752      0.001200      NO
         Energy change      0.000025      0.000001      NO


 New Cartesian Coordinates Obtained by Inverse Iteration

 Displacement from previous Coordinates is:  0.025708
 ----------------------------------------------------------------
             Standard Nuclear Orientation (Angstroms)
    I     Atom           X                Y                Z
 ----------------------------------------------------------------
    1      S      -1.3215764578    -0.0001741204    -0.0012757355
    2      C       0.2284235548    -0.0000111440    -0.0005808384
    3      C       1.0633534233     1.2650594006     0.0001788746
    4      C       1.0636191066    -1.2649069537     0.0001910377
    5      H       1.7184142468     1.2853245659     0.8807988814
    6      H       1.7246174572     1.2830014375    -0.8758016015
    7      H       0.4394248795     2.1589917122    -0.0029997376
    8      H       0.4398764032    -2.1589734902    -0.0016357679
    9      H       1.7198238342    -1.2844186264     0.8799713167
   10      H       1.7237535522    -1.2833227815    -0.8766364293
 ----------------------------------------------------------------
 Nuclear Repulsion Energy =   154.8988236429 hartrees
 There are       20 alpha and       20 beta electrons

                       Distance Matrix (Angstroms)
             S (  1)   C (  2)   C (  3)   C (  4)   H (  5)   H (  6)
   C (  2)  1.550000
   C (  3)  2.699761  1.515755
   C (  4)  2.699761  1.515755  2.529966
   H (  5)  3.416446  2.156152  1.097728  2.776312
   H (  6)  3.419157  2.156555  1.097695  2.774188  1.756613
   H (  7)  2.786239  2.169290  1.090143  3.480332  1.783314  1.783497
   H (  8)  2.786240  2.169293  3.480334  1.090144  3.778431  3.776495
   H (  9)  3.417016  2.156235  2.775757  1.097724  2.569744  3.110371
   H ( 10)  3.418591  2.156473  2.774741  1.097699  3.112323  2.566325
             H (  7)   H (  8)   H (  9)
   H (  8)  4.317965
   H (  9)  3.778377  1.783352
   H ( 10)  3.776542  1.783460  1.756612
 
 Applying Cartesian multipole field
    Component          Value
    ---------          -----
     (2,0,0)        1.00000E-11
     (0,2,0)        2.00000E-11
     (0,0,2)       -3.00000E-10
 Nucleus-field energy     =     0.0000000011 hartrees
 Requested basis set is 6-31G(d,p)
 There are 35 shells and 94 basis functions
 A cutoff of  1.0D-14 yielded    620 shell pairs
 There are      4567 function pairs
 Smallest overlap matrix eigenvalue = 7.07E-03
 Guess from superposition of atomic densities
 Warning:  Energy on first SCF cycle will be non-variational
 SAD guess density has 40.000000 electrons

 -----------------------------------------------------------------------
  General SCF calculation program by
  Eric Jon Sundstrom, Paul Horn, Yuezhi Mao, Dmitri Zuev, Alec White,
  David Stuck, Shaama M.S., Shane Yost, Joonho Lee, David Small,
  Daniel Levine, Susi Lehtola, Hugh Burton, Evgeny Epifanovsky
 -----------------------------------------------------------------------
 Exchange:     0.2000 Hartree-Fock + 0.0800 Slater + 0.7200 B88
 Correlation:  0.1900 VWN1RPA + 0.8100 LYP
 Using SG-1 standard quadrature grid
 using 16 threads for integral computing
 -------------------------------------------------------
 OpenMP Integral computing Module                
 Release: version 1.0, May 2013, Q-Chem Inc. Pittsburgh 
 -------------------------------------------------------
 -------------------------------------------------------
 OpenMP BLAS3 based DFT computing Module                
 Release: version 1.0, May 2013, Q-Chem Inc. Pittsburgh 
 -------------------------------------------------------
 A unrestricted SCF calculation will be
 performed using DIIS
 SCF converges when DIIS error is below 1.0e-06
 Alpha HF Exchange    Energy =  -4.29762533430966
 Beta HF Exchange     Energy =  -4.29762533430966
 DFT Correlation      Energy =  -1.80984382072194
 DFT Exchange         Energy = -33.54632316996287
 One-Electron (alpha) Energy = -505.71493234981006
 One-Electron (beta)  Energy = -505.71493234981006
 Total Coulomb        Energy = 383.76012213982074
 ---------------------------------------
  Cycle       Energy         DIIS error
 ---------------------------------------
    1    -516.7223365751      3.46e-02  
 Alpha HF Exchange    Energy =  -4.29614743354813
 Beta HF Exchange     Energy =  -4.29614743354813
 DFT Correlation      Energy =  -1.83666076162940
 DFT Exchange         Energy = -34.09289997968377
 One-Electron (alpha) Energy = -509.15221685017548
 One-Electron (beta)  Energy = -509.15221685017536
 Total Coulomb        Energy = 391.88877956319078
    2    -516.0386861016      3.93e-03  
 Alpha HF Exchange    Energy =  -4.24510864623738
 Beta HF Exchange     Energy =  -4.24510864623739
 DFT Correlation      Energy =  -1.81195964171525
 DFT Exchange         Energy = -33.66090842256454
 One-Electron (alpha) Energy = -505.79059491205538
 One-Electron (beta)  Energy = -505.79059491205572
 Total Coulomb        Energy = 384.61640114643046
    3    -516.0290503904      4.19e-03  
 Alpha HF Exchange    Energy =  -4.26837206903846
 Beta HF Exchange     Energy =  -4.26837206903846
 DFT Correlation      Energy =  -1.82460317763304
 DFT Exchange         Energy = -33.85947034742032
 One-Electron (alpha) Energy = -507.40387742009398
 One-Electron (beta)  Energy = -507.40387742009403
 Total Coulomb        Energy = 388.02163807656717
    4    -516.1081107828      9.15e-04  
 Alpha HF Exchange    Energy =  -4.26908953258361
 Beta HF Exchange     Energy =  -4.26908953258361
 DFT Correlation      Energy =  -1.82424734235729
 DFT Exchange         Energy = -33.86275844644722
 One-Electron (alpha) Energy = -507.43674737078015
 One-Electron (beta)  Energy = -507.43674737077998
 Total Coulomb        Energy = 388.08755153666823
    5    -516.1123044149      1.84e-04  
 Alpha HF Exchange    Energy =  -4.26936054957582
 Beta HF Exchange     Energy =  -4.26936054957582
 DFT Correlation      Energy =  -1.82441046917664
 DFT Exchange         Energy = -33.86544188838616
 One-Electron (alpha) Energy = -507.47262140524373
 One-Electron (beta)  Energy = -507.47262140524413
 Total Coulomb        Energy = 388.16255232625639
    6    -516.1124402969      5.87e-05  
 Alpha HF Exchange    Energy =  -4.26913519505448
 Beta HF Exchange     Energy =  -4.26913519505449
 DFT Correlation      Energy =  -1.82431838267285
 DFT Exchange         Energy = -33.86352440314498
 One-Electron (alpha) Energy = -507.44624690657088
 One-Electron (beta)  Energy = -507.44624690657093
 Total Coulomb        Energy = 388.10732672765107
    7    -516.1124566174      8.30e-06  
 Alpha HF Exchange    Energy =  -4.26916756516517
 Beta HF Exchange     Energy =  -4.26916756516517
 DFT Correlation      Energy =  -1.82433228114337
 DFT Exchange         Energy = -33.86378149271155
 One-Electron (alpha) Energy = -507.45029585384310
 One-Electron (beta)  Energy = -507.45029585384333
 Total Coulomb        Energy = 388.11575999958097
    8    -516.1124569683      6.86e-07  Convergence criterion met
 ---------------------------------------
 SCF time:   CPU 27.93s  wall 2.00s 
<S^2> =          0.000000000
 Alpha HF Exchange    Energy =  -4.26916756516517
 Beta HF Exchange     Energy =  -4.26916756516517
 DFT Correlation      Energy =  -1.82433228114337
 DFT Exchange         Energy = -33.86378149271155
 One-Electron (alpha) Energy = -507.45029585384310
 One-Electron (beta)  Energy = -507.45029585384333
 Total Coulomb        Energy = 388.11575999958097
 Nuclear repulsion Energy = 154.89882364399941
 SCF   energy in the final basis set =     -516.1124569683
 Total energy in the final basis set =     -516.1124569683
 
 --------------------------------------------------------------
 
                    Orbital Energies (a.u.)
 --------------------------------------------------------------
 
 Alpha MOs
 -- Occupied --
-88.851 -10.256 -10.196 -10.196  -7.917  -5.880  -5.880  -5.871
 -0.843  -0.715  -0.708  -0.521  -0.452  -0.442  -0.441  -0.401
 -0.371  -0.362  -0.296  -0.215
 -- Virtual --
 -0.060   0.083   0.113   0.148   0.151   0.158   0.172   0.173
  0.220   0.227   0.315   0.362   0.436   0.465   0.506   0.507
  0.549   0.588   0.601   0.670   0.686   0.702   0.746   0.767
  0.800   0.807   0.854   0.880   0.887   0.896   0.909   0.941
  0.944   1.078   1.149   1.276   1.302   1.422   1.491   1.672
  1.721   1.820   1.856   1.879   1.929   2.021   2.028   2.052
  2.056   2.086   2.091   2.157   2.314   2.371   2.379   2.496
  2.577   2.602   2.693   2.699   2.804   2.854   2.888   2.934
  3.160   3.208   3.385   3.401   3.424   3.464   3.975   4.179
  4.475   4.541
 
 Beta MOs
 -- Occupied --
-88.851 -10.256 -10.196 -10.196  -7.917  -5.880  -5.880  -5.871
 -0.843  -0.715  -0.708  -0.521  -0.452  -0.442  -0.441  -0.401
 -0.371  -0.362  -0.296  -0.215
 -- Virtual --
 -0.060   0.083   0.113   0.148   0.151   0.158   0.172   0.173
  0.220   0.227   0.315   0.362   0.436   0.465   0.506   0.507
  0.549   0.588   0.601   0.670   0.686   0.702   0.746   0.767
  0.800   0.807   0.854   0.880   0.887   0.896   0.909   0.941
  0.944   1.078   1.149   1.276   1.302   1.422   1.491   1.672
  1.721   1.820   1.856   1.879   1.929   2.021   2.028   2.052
  2.056   2.086   2.091   2.157   2.314   2.371   2.379   2.496
  2.577   2.602   2.693   2.699   2.804   2.854   2.888   2.934
  3.160   3.208   3.385   3.401   3.424   3.464   3.975   4.179
  4.475   4.541
 --------------------------------------------------------------
 
          Ground-State Mulliken Net Atomic Charges

     Atom                 Charge (a.u.)    Spin (a.u.)
  --------------------------------------------------------
      1 S                    -0.124398       0.000000
      2 C                     0.006830       0.000000
      3 C                    -0.335952       0.000000
      4 C                    -0.335952      -0.000000
      5 H                     0.127872       0.000000
      6 H                     0.127687      -0.000000
      7 H                     0.139177       0.000000
      8 H                     0.139177       0.000000
      9 H                     0.127828      -0.000000
     10 H                     0.127731       0.000000
  --------------------------------------------------------
  Sum of atomic charges =     0.000000
  Sum of spin   charges =     0.000000

 -----------------------------------------------------------------
                    Cartesian Multipole Moments
 -----------------------------------------------------------------
    Charge (ESU x 10^10)
                -0.0000
    Dipole Moment (Debye)
         X       2.7282      Y       0.0003      Z       0.0029
       Tot       2.7282
    Quadrupole Moments (Debye-Ang)
        XX     -33.0366     XY      -0.0002     YY     -32.1801
        XZ      -0.0002     YZ       0.0005     ZZ     -31.8947
    Octopole Moments (Debye-Ang^2)
       XXX       1.5168    XXY       0.0008    XYY       2.4105
       YYY       0.0042    XXZ       0.0125    XYZ       0.0014
       YYZ       0.0147    XZZ       0.8547    YZZ       0.0012
       ZZZ       0.0566
    Hexadecapole Moments (Debye-Ang^3)
      XXXX    -293.7102   XXXY      -0.0030   XXYY     -88.4377
      XYYY      -0.0069   YYYY    -201.1937   XXXZ      -0.1048
      XXYZ       0.0014   XYYZ      -0.0195   YYYZ      -0.0041
      XXZZ     -53.5064   XYZZ      -0.0011   YYZZ     -43.3262
      XZZZ      -0.0563   YZZZ       0.0046   ZZZZ     -48.6236
 -----------------------------------------------------------------
 Calculating analytic gradient of the SCF energy
 Gradient of SCF Energy
            1           2           3           4           5           6
    1   0.0816212  -0.0815810  -0.0002600  -0.0002602   0.0001123   0.0001189
    2   0.0000085  -0.0000085  -0.0000899   0.0000897   0.0000263   0.0000221
    3   0.0000495  -0.0000400  -0.0000072  -0.0000068  -0.0000300   0.0000363
            7           8           9          10
    1   0.0000086   0.0000087   0.0001130   0.0001184
    2   0.0000229  -0.0000230  -0.0000258  -0.0000224
    3  -0.0000038  -0.0000031  -0.0000305   0.0000357
 Max gradient component =       8.162E-02
 RMS gradient           =       2.107E-02
 Gradient time:  CPU 8.28 s  wall 0.69 s
 Geometry Optimization Parameters
   NAtoms,    NIC,     NZ,  NCons,   NDum,   NFix, NCnnct, MaxDiis
       10      56       0       1       0       0       0       0

 Cartesian Hessian Update
 Hessian Updated using BFGS Update


** CONSTRAINED OPTIMIZATION IN DELOCALIZED INTERNAL COORDINATES **
   Searching for a Minimum

   Optimization Cycle:   4

                       Coordinates (Angstroms)
     ATOM                X               Y               Z
      1  S        -1.3215764578   -0.0001741204   -0.0012757355
      2  C         0.2284235548   -0.0000111440   -0.0005808384
      3  C         1.0633534233    1.2650594006    0.0001788746
      4  C         1.0636191066   -1.2649069537    0.0001910377
      5  H         1.7184142468    1.2853245659    0.8807988814
      6  H         1.7246174572    1.2830014375   -0.8758016015
      7  H         0.4394248795    2.1589917122   -0.0029997376
      8  H         0.4398764032   -2.1589734902   -0.0016357679
      9  H         1.7198238342   -1.2844186264    0.8799713167
     10  H         1.7237535522   -1.2833227815   -0.8766364293
   Point Group: c1    Number of degrees of freedom:    24


   Energy is   -516.112456968

              Constraints and their Current Values
                                        Value     Constraint
   Distance(Angs):        1   2             1.550000     1.550000
 Hessian Updated using BFGS Update

 21 Hessian modes will be used to form the next step
  Hessian Eigenvalues:
     0.044967    0.045000    0.045000    0.089902    0.092946    0.092949
     0.095816    0.147649    0.160000    0.160000    0.162710    0.233409
     0.250000    0.303611    0.317348    0.338902    0.338922    0.338941
     0.339950    0.348745    0.352101

 Minimum Search - Taking Simple RFO Step
 Searching for Lamda that Minimizes Along All modes
 Value Taken    Lamda =   0.00000000
 Step Taken.  Stepsize is  0.002501

                             Maximum     Tolerance    Cnvgd?
         Gradient           0.000222      0.000300     YES
         Displacement       0.001664      0.001200      NO
         Energy change     -0.000014      0.000001      NO


 New Cartesian Coordinates Obtained by Inverse Iteration

 Displacement from previous Coordinates is:  0.002484
 ----------------------------------------------------------------
             Standard Nuclear Orientation (Angstroms)
    I     Atom           X                Y                Z
 ----------------------------------------------------------------
    1      S      -1.3215737736    -0.0001741655    -0.0013892300
    2      C       0.2284261945    -0.0000111995    -0.0006012967
    3      C       1.0636533284     1.2650173314     0.0001946327
    4      C       1.0639192644    -1.2648646756     0.0002084197
    5      H       1.7181879447     1.2848906822     0.8811112366
    6      H       1.7242938465     1.2826540766    -0.8761596631
    7      H       0.4396723244     2.1589000198    -0.0029111633
    8      H       0.4401240281    -2.1588814864    -0.0015602519
    9      H       1.7195817136    -1.2839900970     0.8802978355
   10      H       1.7234451290    -1.2829704860    -0.8769805194
 ----------------------------------------------------------------
 Nuclear Repulsion Energy =   154.8968932595 hartrees
 There are       20 alpha and       20 beta electrons

                       Distance Matrix (Angstroms)
             S (  1)   C (  2)   C (  3)   C (  4)   H (  5)   H (  6)
   C (  2)  1.550000
   C (  3)  2.700004  1.515883
   C (  4)  2.700004  1.515884  2.529882
   H (  5)  3.416189  2.155871  1.097645  2.775844
   H (  6)  3.418798  2.156259  1.097613  2.773800  1.757283
   H (  7)  2.786322  2.169223  1.090132  3.480210  1.783253  1.783430
   H (  8)  2.786323  2.169225  3.480212  1.090133  3.777846  3.776001
   H (  9)  3.416750  2.155952  2.775295  1.097641  2.568881  3.110117
   H ( 10)  3.418240  2.156179  2.774347  1.097617  3.112045  2.565625
             H (  7)   H (  8)   H (  9)
   H (  8)  4.317782
   H (  9)  3.777793  1.783289
   H ( 10)  3.776049  1.783394  1.757283
 
 Applying Cartesian multipole field
    Component          Value
    ---------          -----
     (2,0,0)        1.00000E-11
     (0,2,0)        2.00000E-11
     (0,0,2)       -3.00000E-10
 Nucleus-field energy     =     0.0000000011 hartrees
 Requested basis set is 6-31G(d,p)
 There are 35 shells and 94 basis functions
 A cutoff of  1.0D-14 yielded    620 shell pairs
 There are      4567 function pairs
 Smallest overlap matrix eigenvalue = 7.08E-03
 Guess from superposition of atomic densities
 Warning:  Energy on first SCF cycle will be non-variational
 SAD guess density has 40.000000 electrons

 -----------------------------------------------------------------------
  General SCF calculation program by
  Eric Jon Sundstrom, Paul Horn, Yuezhi Mao, Dmitri Zuev, Alec White,
  David Stuck, Shaama M.S., Shane Yost, Joonho Lee, David Small,
  Daniel Levine, Susi Lehtola, Hugh Burton, Evgeny Epifanovsky
 -----------------------------------------------------------------------
 Exchange:     0.2000 Hartree-Fock + 0.0800 Slater + 0.7200 B88
 Correlation:  0.1900 VWN1RPA + 0.8100 LYP
 Using SG-1 standard quadrature grid
 using 16 threads for integral computing
 -------------------------------------------------------
 OpenMP Integral computing Module                
 Release: version 1.0, May 2013, Q-Chem Inc. Pittsburgh 
 -------------------------------------------------------
 -------------------------------------------------------
 OpenMP BLAS3 based DFT computing Module                
 Release: version 1.0, May 2013, Q-Chem Inc. Pittsburgh 
 -------------------------------------------------------
 A unrestricted SCF calculation will be
 performed using DIIS
 SCF converges when DIIS error is below 1.0e-06
 Alpha HF Exchange    Energy =  -4.29762207695321
 Beta HF Exchange     Energy =  -4.29762207695321
 DFT Correlation      Energy =  -1.80984423577852
 DFT Exchange         Energy = -33.54631817339572
 One-Electron (alpha) Energy = -505.71293451656857
 One-Electron (beta)  Energy = -505.71293451656857
 Total Coulomb        Energy = 383.75814272340057
 ---------------------------------------
  Cycle       Energy         DIIS error
 ---------------------------------------
    1    -516.7222396122      3.46e-02  
 Alpha HF Exchange    Energy =  -4.29615457762069
 Beta HF Exchange     Energy =  -4.29615457762069
 DFT Correlation      Energy =  -1.83666145076960
 DFT Exchange         Energy = -34.09294739726970
 One-Electron (alpha) Energy = -509.15006554205121
 One-Electron (beta)  Energy = -509.15006554205132
 Total Coulomb        Energy = 391.88647648108713
    2    -516.0386793457      3.94e-03  
 Alpha HF Exchange    Energy =  -4.24511716266637
 Beta HF Exchange     Energy =  -4.24511716266638
 DFT Correlation      Energy =  -1.81196270927199
 DFT Exchange         Energy = -33.66096751487139
 One-Electron (alpha) Energy = -505.78936678647563
 One-Electron (beta)  Energy = -505.78936678647563
 Total Coulomb        Energy = 384.61594476409965
    3    -516.0290600977      4.19e-03  
 Alpha HF Exchange    Energy =  -4.26837739076446
 Beta HF Exchange     Energy =  -4.26837739076446
 DFT Correlation      Energy =  -1.82460365879932
 DFT Exchange         Energy = -33.85950133440384
 One-Electron (alpha) Energy = -507.40186254123495
 One-Electron (beta)  Energy = -507.40186254123489
 Total Coulomb        Energy = 388.01957855147208
    4    -516.1081130451      9.15e-04  
 Alpha HF Exchange    Energy =  -4.26909537589300
 Beta HF Exchange     Energy =  -4.26909537589300
 DFT Correlation      Energy =  -1.82424803546743
 DFT Exchange         Energy = -33.86279369259361
 One-Electron (alpha) Energy = -507.43478466644632
 One-Electron (beta)  Energy = -507.43478466644643
 Total Coulomb        Energy = 388.08560397711921
    5    -516.1123045750      1.85e-04  
 Alpha HF Exchange    Energy =  -4.26936701208957
 Beta HF Exchange     Energy =  -4.26936701208956
 DFT Correlation      Energy =  -1.82441154603586
 DFT Exchange         Energy = -33.86548278327253
 One-Electron (alpha) Energy = -507.47075152715684
 One-Electron (beta)  Energy = -507.47075152715649
 Total Coulomb        Energy = 388.16079749838781
    6    -516.1124406488      5.88e-05  
 Alpha HF Exchange    Energy =  -4.26914137287311
 Beta HF Exchange     Energy =  -4.26914137287311
 DFT Correlation      Energy =  -1.82431933018052
 DFT Exchange         Energy = -33.86356284029257
 One-Electron (alpha) Energy = -507.44434642719193
 One-Electron (beta)  Energy = -507.44434642719182
 Total Coulomb        Energy = 388.10550748903415
    7    -516.1124570210      8.29e-06  
 Alpha HF Exchange    Energy =  -4.26917373784703
 Beta HF Exchange     Energy =  -4.26917373784703
 DFT Correlation      Energy =  -1.82433322271041
 DFT Exchange         Energy = -33.86381987165396
 One-Electron (alpha) Energy = -507.44839113769029
 One-Electron (beta)  Energy = -507.44839113769029
 Total Coulomb        Energy = 388.11393221395986
    8    -516.1124573709      6.87e-07  Convergence criterion met
 ---------------------------------------
 SCF time:   CPU 27.41s  wall 2.00s 
<S^2> =          0.000000000
 Alpha HF Exchange    Energy =  -4.26917373784703
 Beta HF Exchange     Energy =  -4.26917373784703
 DFT Correlation      Energy =  -1.82433322271041
 DFT Exchange         Energy = -33.86381987165396
 One-Electron (alpha) Energy = -507.44839113769029
 One-Electron (beta)  Energy = -507.44839113769029
 Total Coulomb        Energy = 388.11393221395986
 Nuclear repulsion Energy = 154.89689326059712
 SCF   energy in the final basis set =     -516.1124573709
 Total energy in the final basis set =     -516.1124573709
 
 --------------------------------------------------------------
 
                    Orbital Energies (a.u.)
 --------------------------------------------------------------
 
 Alpha MOs
 -- Occupied --
-88.851 -10.256 -10.196 -10.196  -7.917  -5.880  -5.880  -5.871
 -0.843  -0.715  -0.708  -0.521  -0.452  -0.442  -0.441  -0.401
 -0.371  -0.362  -0.296  -0.215
 -- Virtual --
 -0.060   0.083   0.113   0.148   0.151   0.158   0.172   0.173
  0.220   0.227   0.315   0.362   0.436   0.465   0.506   0.507
  0.549   0.588   0.601   0.670   0.686   0.702   0.746   0.767
  0.800   0.807   0.854   0.880   0.887   0.896   0.909   0.941
  0.944   1.078   1.149   1.276   1.302   1.422   1.491   1.672
  1.721   1.820   1.856   1.879   1.929   2.021   2.028   2.052
  2.056   2.086   2.090   2.157   2.314   2.371   2.380   2.496
  2.577   2.602   2.693   2.699   2.805   2.854   2.888   2.934
  3.160   3.208   3.385   3.401   3.424   3.464   3.975   4.179
  4.475   4.541
 
 Beta MOs
 -- Occupied --
-88.851 -10.256 -10.196 -10.196  -7.917  -5.880  -5.880  -5.871
 -0.843  -0.715  -0.708  -0.521  -0.452  -0.442  -0.441  -0.401
 -0.371  -0.362  -0.296  -0.215
 -- Virtual --
 -0.060   0.083   0.113   0.148   0.151   0.158   0.172   0.173
  0.220   0.227   0.315   0.362   0.436   0.465   0.506   0.507
  0.549   0.588   0.601   0.670   0.686   0.702   0.746   0.767
  0.800   0.807   0.854   0.880   0.887   0.896   0.909   0.941
  0.944   1.078   1.149   1.276   1.302   1.422   1.491   1.672
  1.721   1.820   1.856   1.879   1.929   2.021   2.028   2.052
  2.056   2.086   2.090   2.157   2.314   2.371   2.380   2.496
  2.577   2.602   2.693   2.699   2.805   2.854   2.888   2.934
  3.160   3.208   3.385   3.401   3.424   3.464   3.975   4.179
  4.475   4.541
 --------------------------------------------------------------
 
          Ground-State Mulliken Net Atomic Charges

     Atom                 Charge (a.u.)    Spin (a.u.)
  --------------------------------------------------------
      1 S                    -0.124395       0.000000
      2 C                     0.006687      -0.000000
      3 C                    -0.335885       0.000000
      4 C                    -0.335885       0.000000
      5 H                     0.127879       0.000000
      6 H                     0.127702       0.000000
      7 H                     0.139158      -0.000000
      8 H                     0.139158      -0.000000
      9 H                     0.127836      -0.000000
     10 H                     0.127745      -0.000000
  --------------------------------------------------------
  Sum of atomic charges =     0.000000
  Sum of spin   charges =    -0.000000

 -----------------------------------------------------------------
                    Cartesian Multipole Moments
 -----------------------------------------------------------------
    Charge (ESU x 10^10)
                 0.0000
    Dipole Moment (Debye)
         X       2.7274      Y       0.0003      Z       0.0030
       Tot       2.7274
    Quadrupole Moments (Debye-Ang)
        XX     -33.0406     XY      -0.0002     YY     -32.1830
        XZ      -0.0005     YZ       0.0005     ZZ     -31.8904
    Octopole Moments (Debye-Ang^2)
       XXX       1.4956    XXY       0.0008    XYY       2.4025
       YYY       0.0042    XXZ       0.0139    XYZ       0.0014
       YYZ       0.0162    XZZ       0.8579    YZZ       0.0012
       ZZZ       0.0603
    Hexadecapole Moments (Debye-Ang^3)
      XXXX    -293.7667   XXXY      -0.0030   XXYY     -88.4522
      XYYY      -0.0070   YYYY    -201.1826   XXXZ      -0.1112
      XXYZ       0.0014   XYYZ      -0.0225   YYYZ      -0.0040
      XXZZ     -53.5043   XYZZ      -0.0011   YYZZ     -43.3177
      XZZZ      -0.0631   YZZZ       0.0046   ZZZZ     -48.6224
 -----------------------------------------------------------------
 Calculating analytic gradient of the SCF energy
 Gradient of SCF Energy
            1           2           3           4           5           6
    1   0.0815949  -0.0816078  -0.0000504  -0.0000504   0.0000233   0.0000297
    2   0.0000085  -0.0000086  -0.0000112   0.0000112  -0.0000013  -0.0000055
    3   0.0000540  -0.0000452  -0.0000064  -0.0000066  -0.0000056   0.0000112
            7           8           9          10
    1   0.0000038   0.0000039   0.0000239   0.0000291
    2   0.0000026  -0.0000026   0.0000018   0.0000051
    3  -0.0000035  -0.0000027  -0.0000060   0.0000108
 Max gradient component =       8.161E-02
 RMS gradient           =       2.107E-02
 Gradient time:  CPU 8.26 s  wall 0.69 s
 Geometry Optimization Parameters
   NAtoms,    NIC,     NZ,  NCons,   NDum,   NFix, NCnnct, MaxDiis
       10      56       0       1       0       0       0       0

 Cartesian Hessian Update
 Hessian Updated using BFGS Update


** CONSTRAINED OPTIMIZATION IN DELOCALIZED INTERNAL COORDINATES **
   Searching for a Minimum

   Optimization Cycle:   5

                       Coordinates (Angstroms)
     ATOM                X               Y               Z
      1  S        -1.3215737736   -0.0001741655   -0.0013892300
      2  C         0.2284261945   -0.0000111995   -0.0006012967
      3  C         1.0636533284    1.2650173314    0.0001946327
      4  C         1.0639192644   -1.2648646756    0.0002084197
      5  H         1.7181879447    1.2848906822    0.8811112366
      6  H         1.7242938465    1.2826540766   -0.8761596631
      7  H         0.4396723244    2.1589000198   -0.0029111633
      8  H         0.4401240281   -2.1588814864   -0.0015602519
      9  H         1.7195817136   -1.2839900970    0.8802978355
     10  H         1.7234451290   -1.2829704860   -0.8769805194
   Point Group: c1    Number of degrees of freedom:    24


   Energy is   -516.112457371

              Constraints and their Current Values
                                        Value     Constraint
   Distance(Angs):        1   2             1.550000     1.550000
 Hessian Updated using BFGS Update

 20 Hessian modes will be used to form the next step
  Hessian Eigenvalues:
     0.043578    0.045000    0.072873    0.092947    0.092961    0.095816
     0.154337    0.160000    0.160025    0.163611    0.232198    0.250000
     0.303522    0.317348    0.337907    0.338903    0.338931    0.338943
     0.348745    0.352351

 Minimum Search - Taking Simple RFO Step
 Searching for Lamda that Minimizes Along All modes
 Value Taken    Lamda =   0.00000000
 Step Taken.  Stepsize is  0.000905

                             Maximum     Tolerance    Cnvgd?
         Gradient           0.000046      0.000300     YES
         Displacement       0.000430      0.001200     YES
         Energy change     -0.000000      0.000001     YES


                       Distance Matrix (Angstroms)
             S (  1)   C (  2)   C (  3)   C (  4)   H (  5)   H (  6)
   C (  2)  1.550000
   C (  3)  2.700004  1.515883
   C (  4)  2.700004  1.515884  2.529882
   H (  5)  3.416189  2.155871  1.097645  2.775844
   H (  6)  3.418798  2.156259  1.097613  2.773800  1.757283
   H (  7)  2.786322  2.169223  1.090132  3.480210  1.783253  1.783430
   H (  8)  2.786323  2.169225  3.480212  1.090133  3.777846  3.776001
   H (  9)  3.416750  2.155952  2.775295  1.097641  2.568881  3.110117
   H ( 10)  3.418240  2.156179  2.774347  1.097617  3.112045  2.565625
             H (  7)   H (  8)   H (  9)
   H (  8)  4.317782
   H (  9)  3.777793  1.783289
   H ( 10)  3.776049  1.783394  1.757283
 
[...]
 One-Electron (beta)  Energy = -477.78316432707186
 Total Coulomb        Energy = 358.35899537491355
  351    -515.7346748028      3.58e-05  
 Alpha HF Exchange    Energy =  -4.25245254107360
 Beta HF Exchange     Energy =  -4.25240418540640
 DFT Correlation      Energy =  -1.80867560577372
 DFT Exchange         Energy = -33.79870340423609
 One-Electron (alpha) Energy = -477.78039239235488
 One-Electron (beta)  Energy = -477.78388405767225
 Total Coulomb        Energy = 358.36031498935859
  352    -515.7346806791      2.91e-05  
 Alpha HF Exchange    Energy =  -4.25245797686565
 Beta HF Exchange     Energy =  -4.25240713843508
 DFT Correlation      Energy =  -1.80867909893622
 DFT Exchange         Energy = -33.79870870272917
 One-Electron (alpha) Energy = -477.78048443701721
 One-Electron (beta)  Energy = -477.78413199931197
 Total Coulomb        Energy = 358.36068404694345
  353    -515.7346687883      3.23e-05  
 Alpha HF Exchange    Energy =  -4.25266515826263
 Beta HF Exchange     Energy =  -4.25256980422568
 DFT Correlation      Energy =  -1.80874269803777
 DFT Exchange         Energy = -33.79929102645617
 One-Electron (alpha) Energy = -477.77654357971795
 One-Electron (beta)  Energy = -477.77970779171574
 Total Coulomb        Energy = 358.35341317224891
  354    -515.7345903681      8.31e-05  
 Alpha HF Exchange    Energy =  -4.25266549161413
 Beta HF Exchange     Energy =  -4.25258212733182
 DFT Correlation      Energy =  -1.80874324517977
 DFT Exchange         Energy = -33.79930816507227
 One-Electron (alpha) Energy = -477.77662830780861
 One-Electron (beta)  Energy = -477.77962502374351
 Total Coulomb        Energy = 358.35345404844986
  355    -515.7345817943      8.53e-05  
 Alpha HF Exchange    Energy =  -4.25266234149484
 Beta HF Exchange     Energy =  -4.25257413996238
 DFT Correlation      Energy =  -1.80874296411650
 DFT Exchange         Energy = -33.79929109782339
 One-Electron (alpha) Energy = -477.77671490323712
 One-Electron (beta)  Energy = -477.77987441423733
 Total Coulomb        Energy = 358.35376022527043
  356    -515.7345831176      8.41e-05  
 Alpha HF Exchange    Energy =  -4.25276376876946
 Beta HF Exchange     Energy =  -4.25264026931439
 DFT Correlation      Energy =  -1.80877582415637
 DFT Exchange         Energy = -33.79963137129833
 One-Electron (alpha) Energy = -477.77710415404954
 One-Electron (beta)  Energy = -477.78197627259499
 Total Coulomb        Energy = 358.35689405694387
  357    -515.7344810852      1.11e-04  
 Alpha HF Exchange    Energy =  -4.25245097900254
 Beta HF Exchange     Energy =  -4.25228851902337
 DFT Correlation      Energy =  -1.80870035231474
 DFT Exchange         Energy = -33.79857291813769
 One-Electron (alpha) Energy = -477.78213256860147
 One-Electron (beta)  Energy = -477.78807286790516
 Total Coulomb        Energy = 358.36603679975065
  358    -515.7346648872      1.86e-05  
 Alpha HF Exchange    Energy =  -4.25241489760839
 Beta HF Exchange     Energy =  -4.25232299993789
 DFT Correlation      Energy =  -1.80872744730520
 DFT Exchange         Energy = -33.79854295570750
 One-Electron (alpha) Energy = -477.78687583225229
 One-Electron (beta)  Energy = -477.79153480063741
 Total Coulomb        Energy = 358.37436062585084
  359    -515.7345417896      3.74e-05  
 Alpha HF Exchange    Energy =  -4.25240063074873
 Beta HF Exchange     Energy =  -4.25239205252037
 DFT Correlation      Energy =  -1.80868413656273
 DFT Exchange         Energy = -33.79863062186651
 One-Electron (alpha) Energy = -477.78362848416668
 One-Electron (beta)  Energy = -477.78597451131873
 Total Coulomb        Energy = 358.36555269470421
  360    -515.7346412244      2.67e-05  
 Alpha HF Exchange    Energy =  -4.25263367466000
 Beta HF Exchange     Energy =  -4.25280546571804
 DFT Correlation      Energy =  -1.80866127921785
 DFT Exchange         Energy = -33.79958785369225
 One-Electron (alpha) Energy = -477.77024864335738
 One-Electron (beta)  Energy = -477.76843856031263
 Total Coulomb        Energy = 358.33610064374818
  361    -515.7347583152      7.76e-05  
 Alpha HF Exchange    Energy =  -4.25297069234690
 Beta HF Exchange     Energy =  -4.25304588825040
 DFT Correlation      Energy =  -1.80863145332185
 DFT Exchange         Energy = -33.80044992291153
 One-Electron (alpha) Energy = -477.75571234853834
 One-Electron (beta)  Energy = -477.75766286694028
 Total Coulomb        Energy = 358.31214944031785
  362    -515.7348072140      1.25e-04  
 Alpha HF Exchange    Energy =  -4.25280587054567
 Beta HF Exchange     Energy =  -4.25268133575423
 DFT Correlation      Energy =  -1.80864492546167
 DFT Exchange         Energy = -33.79966359734925
 One-Electron (alpha) Energy = -477.76281573152733
 One-Electron (beta)  Energy = -477.77021472375600
 Total Coulomb        Energy = 358.33047137217142
  363    -515.7348382942      7.25e-05  
 Alpha HF Exchange    Energy =  -4.25257711017938
 Beta HF Exchange     Energy =  -4.25246005120387
 DFT Correlation      Energy =  -1.80863073795123
 DFT Exchange         Energy = -33.79899378853236
 One-Electron (alpha) Energy = -477.77271424663002
 One-Electron (beta)  Energy = -477.77843128720559
 Total Coulomb        Energy = 358.34749106059871
  364    -515.7347996431      2.75e-05  
 Alpha HF Exchange    Energy =  -4.25296639876651
 Beta HF Exchange     Energy =  -4.25282667666691
 DFT Correlation      Energy =  -1.80858285367253
 DFT Exchange         Energy = -33.80026623972649
 One-Electron (alpha) Energy = -477.76077154861963
 One-Electron (beta)  Energy = -477.76730366767373
 Total Coulomb        Energy = 358.32636648383868
  365    -515.7348343833      8.85e-05  
 Alpha HF Exchange    Energy =  -4.25252240861008
 Beta HF Exchange     Energy =  -4.25250956748108
 DFT Correlation      Energy =  -1.80868356333592
 DFT Exchange         Energy = -33.79918447449671
 One-Electron (alpha) Energy = -477.78298977245214
 One-Electron (beta)  Energy = -477.78521849531154
 Total Coulomb        Energy = 358.36492912291612
  366    -515.7346626407      4.02e-05  
 Alpha HF Exchange    Energy =  -4.25254842464348
 Beta HF Exchange     Energy =  -4.25260279439135
 DFT Correlation      Energy =  -1.80874894456443
 DFT Exchange         Energy = -33.79937014852705
 One-Electron (alpha) Energy = -477.78803376260777
 One-Electron (beta)  Energy = -477.78834674184316
 Total Coulomb        Energy = 358.37366371486246
  367    -515.7344705837      7.92e-05  
 Alpha HF Exchange    Energy =  -4.25242081661848
 Beta HF Exchange     Energy =  -4.25256197871261
 DFT Correlation      Energy =  -1.80875062360953
 DFT Exchange         Energy = -33.79907124532514
 One-Electron (alpha) Energy = -477.79024097591571
 One-Electron (beta)  Energy = -477.78762550986193
 Total Coulomb        Energy = 358.37463463871359
  368    -515.7345199933      5.99e-05  
 Alpha HF Exchange    Energy =  -4.25238196381746
 Beta HF Exchange     Energy =  -4.25258126627918
 DFT Correlation      Energy =  -1.80873310284366
 DFT Exchange         Energy = -33.79901587423443
 One-Electron (alpha) Energy = -477.78868206596360
 One-Electron (beta)  Energy = -477.78507591427092
 Total Coulomb        Energy = 358.37037798774998
  369    -515.7345756816      5.11e-05  
 Alpha HF Exchange    Energy =  -4.25234613405899
 Beta HF Exchange     Energy =  -4.25252728163428
 DFT Correlation      Energy =  -1.80874238691067
 DFT Exchange         Energy = -33.79882120564182
 One-Electron (alpha) Energy = -477.78911090099956
 One-Electron (beta)  Energy = -477.78410992846648
 Total Coulomb        Energy = 358.36954822049393
  370    -515.7345930992      4.40e-05  
 Alpha HF Exchange    Energy =  -4.25254955116654
 Beta HF Exchange     Energy =  -4.25277199661911
 DFT Correlation      Energy =  -1.80872259409576
 DFT Exchange         Energy = -33.79970847363533
 One-Electron (alpha) Energy = -477.78770062820985
 One-Electron (beta)  Energy = -477.78435291054478
 Total Coulomb        Energy = 358.36979542596646
  371    -515.7344942103      8.89e-05  
 Alpha HF Exchange    Energy =  -4.25234649778754
 Beta HF Exchange     Energy =  -4.25257833932214
 DFT Correlation      Energy =  -1.80869588624173
 DFT Exchange         Energy = -33.79882784982098
 One-Electron (alpha) Energy = -477.78234761561885
 One-Electron (beta)  Energy = -477.77832646688421
 Total Coulomb        Energy = 358.35689522859127
  372    -515.7347109090      3.26e-05  
 Alpha HF Exchange    Energy =  -4.25247986185623
 Beta HF Exchange     Energy =  -4.25271515708964
 DFT Correlation      Energy =  -1.80869912615899
 DFT Exchange         Energy = -33.79926536377656
 One-Electron (alpha) Energy = -477.77968800319991
 One-Electron (beta)  Energy = -477.77681520177725
 Total Coulomb        Energy = 358.35349798582263
  373    -515.7346482100      6.67e-05  
 Alpha HF Exchange    Energy =  -4.25214425507973
 Beta HF Exchange     Energy =  -4.25237637569983
 DFT Correlation      Energy =  -1.80869223415671
 DFT Exchange         Energy = -33.79819880330189
 One-Electron (alpha) Energy = -477.79051971959638
 One-Electron (beta)  Energy = -477.78590426298405
 Total Coulomb        Energy = 358.37167041766151
  374    -515.7346487151      1.78e-05  
 Alpha HF Exchange    Energy =  -4.25199413875367
 Beta HF Exchange     Energy =  -4.25230512905095
 DFT Correlation      Energy =  -1.80867790848584
 DFT Exchange         Energy = -33.79790385230062
 One-Electron (alpha) Energy = -477.79846478623216
 One-Electron (beta)  Energy = -477.79194391138270
 Total Coulomb        Energy = 358.38520663997690
  375    -515.7345665682      3.58e-05  
 Alpha HF Exchange    Energy =  -4.25185253478515
 Beta HF Exchange     Energy =  -4.25218928931651
 DFT Correlation      Energy =  -1.80865179968485
 DFT Exchange         Energy = -33.79743236501182
 One-Electron (alpha) Energy = -477.79884429590408
 One-Electron (beta)  Energy = -477.79083820315350
 Total Coulomb        Energy = 358.38369884201643
  376    -515.7345931278      7.59e-05  
 Alpha HF Exchange    Energy =  -4.25210660375560
 Beta HF Exchange     Energy =  -4.25248530826684
 DFT Correlation      Energy =  -1.80861282245278
 DFT Exchange         Energy = -33.79840435788367
 One-Electron (alpha) Energy = -477.79303531288735
 One-Electron (beta)  Energy = -477.78530897804762
 Total Coulomb        Energy = 358.37378734395202
  377    -515.7346495213      2.63e-05  
 Alpha HF Exchange    Energy =  -4.25205926371096
 Beta HF Exchange     Energy =  -4.25242883215793
 DFT Correlation      Energy =  -1.80861386599444
 DFT Exchange         Energy = -33.79828939627343
 One-Electron (alpha) Energy = -477.79872283076440
 One-Electron (beta)  Energy = -477.79164899074931
 Total Coulomb        Energy = 358.38569264794785
  378    -515.7345540137      2.82e-05  
 Alpha HF Exchange    Energy =  -4.25170367793879
 Beta HF Exchange     Energy =  -4.25187365364127
 DFT Correlation      Energy =  -1.80863700195924
 DFT Exchange         Energy = -33.79680474611700
 One-Electron (alpha) Energy = -477.81079819217217
 One-Electron (beta)  Energy = -477.80776231925353
 Total Coulomb        Energy = 358.41171185023347
  379    -515.7343512228      1.18e-04  
 Alpha HF Exchange    Energy =  -4.25185041730334
 Beta HF Exchange     Energy =  -4.25199936368306
 DFT Correlation      Energy =  -1.80860844129749
 DFT Exchange         Energy = -33.79729266986669
 One-Electron (alpha) Energy = -477.80587612901843
 One-Electron (beta)  Energy = -477.80427097112408
 Total Coulomb        Energy = 358.40394919160497
  380    -515.7344322827      9.76e-05  
 Alpha HF Exchange    Energy =  -4.25234004381036
 Beta HF Exchange     Energy =  -4.25254305585307
 DFT Correlation      Energy =  -1.80870246394400
 DFT Exchange         Energy = -33.79894347864850
 One-Electron (alpha) Energy = -477.79811890526338
 One-Electron (beta)  Energy = -477.79701233416529
 Total Coulomb        Energy = 358.39180989409323
  381    -515.7343338696      6.30e-05  
 Alpha HF Exchange    Energy =  -4.25197358123260
 Beta HF Exchange     Energy =  -4.25216538457764
 DFT Correlation      Energy =  -1.80868222491328
 DFT Exchange         Energy = -33.79764719272627
 One-Electron (alpha) Energy = -477.80070363815878
 One-Electron (beta)  Energy = -477.79730019826616
 Total Coulomb        Energy = 358.39245335673479
  382    -515.7345023451      4.52e-05  
 Alpha HF Exchange    Energy =  -4.25288344058173
 Beta HF Exchange     Energy =  -4.25317918784510
 DFT Correlation      Energy =  -1.80865826826167
 DFT Exchange         Energy = -33.80092460724664
 One-Electron (alpha) Energy = -477.77860622399680
 One-Electron (beta)  Energy = -477.77679978548940
 Total Coulomb        Energy = 358.35523611026611
  383    -515.7342988851      1.63e-04  
 Alpha HF Exchange    Energy =  -4.25255177548051
 Beta HF Exchange     Energy =  -4.25255652798069
 DFT Correlation      Energy =  -1.80867599340099
 DFT Exchange         Energy = -33.79931152303787
 One-Electron (alpha) Energy = -477.78753230988877
 One-Electron (beta)  Energy = -477.79130216958487
 Total Coulomb        Energy = 358.37594040904446
  384    -515.7344733723      6.61e-05  
 Alpha HF Exchange    Energy =  -4.25253075782505
 Beta HF Exchange     Energy =  -4.25230794407064
 DFT Correlation      Energy =  -1.80869116275820
 DFT Exchange         Energy = -33.79883891472586
 One-Electron (alpha) Energy = -477.78498778689595
 One-Electron (beta)  Energy = -477.79420544111144
 Total Coulomb        Energy = 358.37547851019838
  385    -515.7345669792      3.24e-05  
 Alpha HF Exchange    Energy =  -4.25245065131680
 Beta HF Exchange     Energy =  -4.25230742603441
 DFT Correlation      Energy =  -1.80876636234952
 DFT Exchange         Energy = -33.79871796824607
 One-Electron (alpha) Energy = -477.79710750514755
 One-Electron (beta)  Energy = -477.80337459742930
 Total Coulomb        Energy = 358.39692406696167
  386    -515.7342839255      6.54e-05  
 Alpha HF Exchange    Energy =  -4.25235180700650
 Beta HF Exchange     Energy =  -4.25218819267938
 DFT Correlation      Energy =  -1.80873701250022
 DFT Exchange         Energy = -33.79838126110605
 One-Electron (alpha) Energy = -477.79365899970253
 One-Electron (beta)  Energy = -477.80069829063041
 Total Coulomb        Energy = 358.39001863560526
  387    -515.7344804100      1.85e-05  
 Alpha HF Exchange    Energy =  -4.25240045502407
 Beta HF Exchange     Energy =  -4.25230027295527
 DFT Correlation      Energy =  -1.80876848956616
 DFT Exchange         Energy = -33.79856663883185
 One-Electron (alpha) Energy = -477.79133354905701
 One-Electron (beta)  Energy = -477.79639736039547
 Total Coulomb        Energy = 358.38378173381199
  388    -515.7344685140      4.22e-05  
 Alpha HF Exchange    Energy =  -4.25255395077066
 Beta HF Exchange     Energy =  -4.25235705726077
 DFT Correlation      Energy =  -1.80871423970090
 DFT Exchange         Energy = -33.79887095991627
 One-Electron (alpha) Energy = -477.78411482530470
 One-Electron (beta)  Energy = -477.79313657568821
 Total Coulomb        Energy = 358.37371422184737
  389    -515.7345168688      5.43e-05  
 Alpha HF Exchange    Energy =  -4.25238016211334
 Beta HF Exchange     Energy =  -4.25222279485867
 DFT Correlation      Energy =  -1.80874006276260
 DFT Exchange         Energy = -33.79834155271562
 One-Electron (alpha) Energy = -477.79061961248709
 One-Electron (beta)  Energy = -477.79770564209628
 Total Coulomb        Energy = 358.38401969279676
  390    -515.7344736162      3.31e-05  
 Alpha HF Exchange    Energy =  -4.25243280228093
 Beta HF Exchange     Energy =  -4.25232183531977
 DFT Correlation      Energy =  -1.80875713110565
 DFT Exchange         Energy = -33.79854888090499
 One-Electron (alpha) Energy = -477.78719654768088
 One-Electron (beta)  Energy = -477.79247447906386
 Total Coulomb        Energy = 358.37571446682745
  391    -515.7345006915      4.86e-05  
 Alpha HF Exchange    Energy =  -4.25235624477671
 Beta HF Exchange     Energy =  -4.25228202456543
 DFT Correlation      Energy =  -1.80871278746126
 DFT Exchange         Energy = -33.79843388255354
 One-Electron (alpha) Energy = -477.79296751834318
 One-Electron (beta)  Energy = -477.79860354963483
 Total Coulomb        Energy = 358.38740228029587
  392    -515.7344372090      3.59e-05  
 Alpha HF Exchange    Energy =  -4.25279758490412
 Beta HF Exchange     Energy =  -4.25279183996989
 DFT Correlation      Energy =  -1.80866608818909
 DFT Exchange         Energy = -33.80006952663601
 One-Electron (alpha) Energy = -477.77948139077836
 One-Electron (beta)  Energy = -477.78398453371102
 Total Coulomb        Energy = 358.36182450324645
  393    -515.7344499429      1.13e-04  
 Alpha HF Exchange    Energy =  -4.25244496256999
 Beta HF Exchange     Energy =  -4.25249046195399
 DFT Correlation      Energy =  -1.80867986031393
 DFT Exchange         Energy = -33.79892266574250
 One-Electron (alpha) Energy = -477.78441511068650
 One-Electron (beta)  Energy = -477.78646853168948
 Total Coulomb        Energy = 358.36730576720242
  394    -515.7345993077      4.30e-05  
 Alpha HF Exchange    Energy =  -4.25286509875419
 Beta HF Exchange     Energy =  -4.25287225542583
 DFT Correlation      Energy =  -1.80863704940448
 DFT Exchange         Energy = -33.80023247481663
 One-Electron (alpha) Energy = -477.77069525039974
 One-Electron (beta)  Energy = -477.77471652699626
 Total Coulomb        Energy = 358.34391988224911
  395    -515.7345822555      1.15e-04  
 Alpha HF Exchange    Energy =  -4.25256412956479
 Beta HF Exchange     Energy =  -4.25257509528359
 DFT Correlation      Energy =  -1.80861803810748
 DFT Exchange         Energy = -33.79938175092972
 One-Electron (alpha) Energy = -477.78626550089291
 One-Electron (beta)  Energy = -477.79041541142857
 Total Coulomb        Energy = 358.37378241336211
  396    -515.7345209948      5.59e-05  
 Alpha HF Exchange    Energy =  -4.25293620595681
 Beta HF Exchange     Energy =  -4.25290303323569
 DFT Correlation      Energy =  -1.80872988742390
 DFT Exchange         Energy = -33.80049183916568
 One-Electron (alpha) Energy = -477.78510293463080
 One-Electron (beta)  Energy = -477.78989373581902
 Total Coulomb        Energy = 358.37448950274410
  397    -515.7340516155      1.75e-04  
 Alpha HF Exchange    Energy =  -4.25321053338180
 Beta HF Exchange     Energy =  -4.25314600877800
 DFT Correlation      Energy =  -1.80872097730460
 DFT Exchange         Energy = -33.80131773406623
 One-Electron (alpha) Energy = -477.78052654571843
 One-Electron (beta)  Energy = -477.78678626001550
 Total Coulomb        Energy = 358.36844523683044
  398    -515.7337463044      2.36e-04  
 Alpha HF Exchange    Energy =  -4.25342718875380
 Beta HF Exchange     Energy =  -4.25334042318532
 DFT Correlation      Energy =  -1.80870879646998
 DFT Exchange         Energy = -33.80191975505599
 One-Electron (alpha) Energy = -477.77550595219418
 One-Electron (beta)  Energy = -477.78213911561039
 Total Coulomb        Energy = 358.36005587265629
  399    -515.7334688406      2.84e-04  
 Alpha HF Exchange    Energy =  -4.25383539617689
 Beta HF Exchange     Energy =  -4.25373440059450
 DFT Correlation      Energy =  -1.80860315027744
 DFT Exchange         Energy = -33.80343934693933
 One-Electron (alpha) Energy = -477.77006762981102
 One-Electron (beta)  Energy = -477.77757158887499
 Total Coulomb        Energy = 358.35261423231373
  400    -515.7331207623      3.39e-04  
 Alpha HF Exchange    Energy =  -4.25385591537452
 Beta HF Exchange     Energy =  -4.25378048835920
 DFT Correlation      Energy =  -1.80861048375810
 DFT Exchange         Energy = -33.80352398336117
 One-Electron (alpha) Energy = -477.76992967319347
 One-Electron (beta)  Energy = -477.77687326849548
 Total Coulomb        Energy = 358.35202944619436
gen_scfman_exception: SCF failed to converge

 Q-Chem fatal error occurred in module libgscf/gen_scfman/gen_scfman_main.C, line 142:

 Error in gen_scfman


 Please submit a crash report at q-chem.com/reporter 
 
 
