********************************************************************************
*                       GENERAL UTILITY LATTICE PROGRAM                        *
*                                 Julian Gale                                  *
*                      Nanochemistry Research Institute                        *
*                           Department of Chemistry                            *
*                    Curtin University, Western Australia                      *
********************************************************************************
* Version = 4.4.2 * Last modified = 20th June 2016                             *
********************************************************************************
*  optimise     - perform optimisation run                                     *
*  conv         - constant volume calculation                                  *
*  phonon       - calculate phonons for final geometry                         *
*  compare      - compare initial and final structures                         *
*  nofrequency  - suppress frequency output after phonon calculation           *
********************************************************************************

  Job Started  at 16:45.21  7th March      2019                               

  Number of CPUs =     1


  Total number of configurations input =   1

********************************************************************************
*  Input for Configuration =   1                                               *
********************************************************************************

  Formula = Mo2Te4                                                      

  Number of irreducible atoms/shells =       6


  Total number atoms/shells =       6

  Dimensionality = 3               :  Bulk   



  Cartesian lattice vectors (Angstroms) :

        3.310100    0.000000    0.000000
        0.000000    6.033900    0.000000
        0.000000    0.000000   20.145200

  Cell parameters (Angstroms/Degrees):

  a =       3.3101    alpha =  90.0000
  b =       6.0339    beta  =  90.0000
  c =      20.1452    gamma =  90.0000

  Initial cell volume =         402.356300 Angs**3

  Shrinking factors =      5     5     5

  Temperature of configuration =  0.000     K 

  Pressure of configuration =         0.000 GPa 

  Fractional coordinates of asymmetric unit :

--------------------------------------------------------------------------------
   No.  Atomic       x           y          z         Charge      Occupancy
        Label      (Frac)      (Frac)     (Frac)        (e)         (Frac)  
--------------------------------------------------------------------------------
      1 Mo1   c    0.000038    0.728380    0.504656     0.00000    1.000000    
      2 Mo2   c    0.500039 *  0.091846 *  0.495330 *   0.00000    1.000000    
      3 Te1   c    0.000036 *  0.339126 *  0.579791 *   0.00000    1.000000    
      4 Te2   c    0.500036 *  0.481102 *  0.420187 *   0.00000    1.000000    
      5 Te3   c    0.500039 *  0.833550 *  0.605901 *   0.00000    1.000000    
      6 Te4   c    0.000038 *  0.986667 *  0.394086 *   0.00000    1.000000    
--------------------------------------------------------------------------------


  Brillouin zone sampling points :

--------------------------------------------------------------------------------
  Point number          x          y          z            Weight
--------------------------------------------------------------------------------
        1           0.000000   0.000000   0.000000         0.0069
        2           0.000000   0.006173   0.000000         0.0069
        3           0.000000   0.012346   0.000000         0.0069
        4           0.000000   0.018519   0.000000         0.0069
        5           0.000000   0.024691   0.000000         0.0069
        6           0.000000   0.030864   0.000000         0.0069
        7           0.000000   0.037037   0.000000         0.0069
        8           0.000000   0.043210   0.000000         0.0069
        9           0.000000   0.049383   0.000000         0.0069
       10           0.000000   0.055556   0.000000         0.0069
       11           0.000000   0.061728   0.000000         0.0069
       12           0.000000   0.067901   0.000000         0.0069
       13           0.000000   0.074074   0.000000         0.0069
       14           0.000000   0.080247   0.000000         0.0069
       15           0.000000   0.086420   0.000000         0.0069
       16           0.000000   0.092593   0.000000         0.0069
       17           0.000000   0.098765   0.000000         0.0069
       18           0.000000   0.104938   0.000000         0.0069
       19           0.000000   0.111111   0.000000         0.0069
       20           0.000000   0.117284   0.000000         0.0069
       21           0.000000   0.123457   0.000000         0.0069
       22           0.000000   0.129630   0.000000         0.0069
       23           0.000000   0.135802   0.000000         0.0069
       24           0.000000   0.141975   0.000000         0.0069
       25           0.000000   0.148148   0.000000         0.0069
       26           0.000000   0.154321   0.000000         0.0069
       27           0.000000   0.160494   0.000000         0.0069
       28           0.000000   0.166667   0.000000         0.0069
       29           0.000000   0.172840   0.000000         0.0069
       30           0.000000   0.179012   0.000000         0.0069
       31           0.000000   0.185185   0.000000         0.0069
       32           0.000000   0.191358   0.000000         0.0069
       33           0.000000   0.197531   0.000000         0.0069
       34           0.000000   0.203704   0.000000         0.0069
       35           0.000000   0.209877   0.000000         0.0069
       36           0.000000   0.216049   0.000000         0.0069
       37           0.000000   0.222222   0.000000         0.0069
       38           0.000000   0.228395   0.000000         0.0069
       39           0.000000   0.234568   0.000000         0.0069
       40           0.000000   0.240741   0.000000         0.0069
       41           0.000000   0.246914   0.000000         0.0069
       42           0.000000   0.253086   0.000000         0.0069
       43           0.000000   0.259259   0.000000         0.0069
       44           0.000000   0.265432   0.000000         0.0069
       45           0.000000   0.271605   0.000000         0.0069
       46           0.000000   0.277778   0.000000         0.0069
       47           0.000000   0.283951   0.000000         0.0069
       48           0.000000   0.290123   0.000000         0.0069
       49           0.000000   0.296296   0.000000         0.0069
       50           0.000000   0.302469   0.000000         0.0069
       51           0.000000   0.308642   0.000000         0.0069
       52           0.000000   0.314815   0.000000         0.0069
       53           0.000000   0.320988   0.000000         0.0069
       54           0.000000   0.327160   0.000000         0.0069
       55           0.000000   0.333333   0.000000         0.0069
       56           0.000000   0.339506   0.000000         0.0069
       57           0.000000   0.345679   0.000000         0.0069
       58           0.000000   0.351852   0.000000         0.0069
       59           0.000000   0.358025   0.000000         0.0069
       60           0.000000   0.364198   0.000000         0.0069
       61           0.000000   0.370370   0.000000         0.0069
       62           0.000000   0.376543   0.000000         0.0069
       63           0.000000   0.382716   0.000000         0.0069
       64           0.000000   0.388889   0.000000         0.0069
       65           0.000000   0.395062   0.000000         0.0069
       66           0.000000   0.401235   0.000000         0.0069
       67           0.000000   0.407407   0.000000         0.0069
       68           0.000000   0.413580   0.000000         0.0069
       69           0.000000   0.419753   0.000000         0.0069
       70           0.000000   0.425926   0.000000         0.0069
       71           0.000000   0.432099   0.000000         0.0069
       72           0.000000   0.438272   0.000000         0.0069
       73           0.000000   0.444444   0.000000         0.0069
       74           0.000000   0.450617   0.000000         0.0069
       75           0.000000   0.456790   0.000000         0.0069
       76           0.000000   0.462963   0.000000         0.0069
       77           0.000000   0.469136   0.000000         0.0069
       78           0.000000   0.475309   0.000000         0.0069
       79           0.000000   0.481481   0.000000         0.0069
       80           0.000000   0.487654   0.000000         0.0069
       81           0.000000   0.493827   0.000000         0.0069
       82           0.000000   0.500000   0.000000         0.0069
       83           0.100000   0.100000   0.100000         0.0069
       84           0.100000   0.100000   0.300000         0.0069
       85           0.100000   0.100000   0.500000         0.0069
       86           0.100000   0.100000   0.700000         0.0069
       87           0.100000   0.100000   0.900000         0.0069
       88           0.100000   0.300000   0.100000         0.0069
       89           0.100000   0.300000   0.300000         0.0069
       90           0.100000   0.300000   0.500000         0.0069
       91           0.100000   0.300000   0.700000         0.0069
       92           0.100000   0.300000   0.900000         0.0069
       93           0.100000   0.500000   0.100000         0.0069
       94           0.100000   0.500000   0.300000         0.0069
       95           0.100000   0.500000   0.500000         0.0069
       96           0.100000   0.500000   0.700000         0.0069
       97           0.100000   0.500000   0.900000         0.0069
       98           0.100000   0.700000   0.100000         0.0069
       99           0.100000   0.700000   0.300000         0.0069
      100           0.100000   0.700000   0.500000         0.0069
      101           0.100000   0.700000   0.700000         0.0069
      102           0.100000   0.700000   0.900000         0.0069
      103           0.100000   0.900000   0.100000         0.0069
      104           0.100000   0.900000   0.300000         0.0069
      105           0.100000   0.900000   0.500000         0.0069
      106           0.100000   0.900000   0.700000         0.0069
      107           0.100000   0.900000   0.900000         0.0069
      108           0.300000   0.100000   0.100000         0.0069
      109           0.300000   0.100000   0.300000         0.0069
      110           0.300000   0.100000   0.500000         0.0069
      111           0.300000   0.100000   0.700000         0.0069
      112           0.300000   0.100000   0.900000         0.0069
      113           0.300000   0.300000   0.100000         0.0069
      114           0.300000   0.300000   0.300000         0.0069
      115           0.300000   0.300000   0.500000         0.0069
      116           0.300000   0.300000   0.700000         0.0069
      117           0.300000   0.300000   0.900000         0.0069
      118           0.300000   0.500000   0.100000         0.0069
      119           0.300000   0.500000   0.300000         0.0069
      120           0.300000   0.500000   0.500000         0.0069
      121           0.300000   0.500000   0.700000         0.0069
      122           0.300000   0.500000   0.900000         0.0069
      123           0.300000   0.700000   0.100000         0.0069
      124           0.300000   0.700000   0.300000         0.0069
      125           0.300000   0.700000   0.500000         0.0069
      126           0.300000   0.700000   0.700000         0.0069
      127           0.300000   0.700000   0.900000         0.0069
      128           0.300000   0.900000   0.100000         0.0069
      129           0.300000   0.900000   0.300000         0.0069
      130           0.300000   0.900000   0.500000         0.0069
      131           0.300000   0.900000   0.700000         0.0069
      132           0.300000   0.900000   0.900000         0.0069
      133           0.500000   0.100000   0.100000         0.0035
      134           0.500000   0.100000   0.300000         0.0035
      135           0.500000   0.100000   0.500000         0.0035
      136           0.500000   0.100000   0.700000         0.0035
      137           0.500000   0.100000   0.900000         0.0035
      138           0.500000   0.300000   0.100000         0.0035
      139           0.500000   0.300000   0.300000         0.0035
      140           0.500000   0.300000   0.500000         0.0035
      141           0.500000   0.300000   0.700000         0.0035
      142           0.500000   0.300000   0.900000         0.0035
      143           0.500000   0.500000   0.100000         0.0035
      144           0.500000   0.500000   0.300000         0.0035
      145           0.500000   0.500000   0.500000         0.0035
      146           0.500000   0.500000   0.700000         0.0035
      147           0.500000   0.500000   0.900000         0.0035
      148           0.500000   0.700000   0.100000         0.0035
      149           0.500000   0.700000   0.300000         0.0035
      150           0.500000   0.700000   0.500000         0.0035
      151           0.500000   0.700000   0.700000         0.0035
      152           0.500000   0.700000   0.900000         0.0035
      153           0.500000   0.900000   0.100000         0.0035
      154           0.500000   0.900000   0.300000         0.0035
      155           0.500000   0.900000   0.500000         0.0035
      156           0.500000   0.900000   0.700000         0.0035
      157           0.500000   0.900000   0.900000         0.0035
--------------------------------------------------------------------------------


********************************************************************************
*  General input information                                                   *
********************************************************************************

  Species output for all configurations : 

--------------------------------------------------------------------------------
  Species    Type    Atomic    Atomic    Charge       Radii (Angs)     Library
                     Number     Mass       (e)     Cova   Ionic  VDW   Symbol
--------------------------------------------------------------------------------
    Mo1      Core       42      95.94   0.000000   1.470  0.000  2.190          
    Mo2      Core       42      95.94   0.000000   1.470  0.000  2.190          
    Te1      Core       52     127.60   0.000000   1.470  0.000  2.200          
    Te2      Core       52     127.60   0.000000   1.470  0.000  2.200          
    Te3      Core       52     127.60   0.000000   1.470  0.000  2.200          
    Te4      Core       52     127.60   0.000000   1.470  0.000  2.200          
--------------------------------------------------------------------------------


  Lattice summation method               =    Ewald          (3-D)
                                         =    Parry          (2-D)
                                         =    Saunders et al (1-D)
  Accuracy factor for lattice sums       =   12.000


  Time limit = Infinity

  Maximum range for interatomic potentials =    100000.000000 Angstroms

  General interatomic potentials :

--------------------------------------------------------------------------------
Atom  Types   Potential         A         B         C         D     Cutoffs(Ang)
  1     2                                                            Min    Max 
--------------------------------------------------------------------------------
Te1  c Te3  c Still-Weber 2  2.16      1.16      47.0      0.00     0.000  5.000
Te1  c Te4  c Still-Weber 2  2.16      1.16      47.0      0.00     0.000  5.000
Te2  c Te3  c Still-Weber 2  2.16      1.16      47.0      0.00     0.000  5.000
Te2  c Te4  c Still-Weber 2  2.16      1.16      47.0      0.00     0.000  5.000
Te1  c Te1  c Still-Weber 2  3.16      2.80      34.7      0.00     0.000  5.000
Te1  c Te2  c Still-Weber 2  3.16      2.80      34.7      0.00     0.000  5.000
Te2  c Te2  c Still-Weber 2  3.16      2.80      34.7      0.00     0.000  5.000
Te3  c Te3  c Still-Weber 2  2.50      2.36      87.5      0.00     0.000  5.000
Te3  c Te4  c Still-Weber 2  2.50      2.36      87.5      0.00     0.000  5.000
Te4  c Te4  c Still-Weber 2  2.50      2.36      87.5      0.00     0.000  5.000
Mo1  c Te1  c Still-Weber 2  3.46     0.681      28.3      0.00     0.000  3.750
Mo1  c Te2  c Still-Weber 2  3.46     0.681      28.3      0.00     0.000  3.750
Mo1  c Te3  c Still-Weber 2  8.11     0.390      10.9      0.00     0.000  3.750
Mo1  c Te4  c Still-Weber 2  8.11     0.390      10.9      0.00     0.000  3.750
Mo1  c Mo1  c Still-Weber 2  1.37     0.744      33.0      0.00     0.000  4.000
Mo2  c Te1  c Still-Weber 2  3.46     0.681      28.3      0.00     0.000  3.750
Mo2  c Te2  c Still-Weber 2  3.46     0.681      28.3      0.00     0.000  3.750
Mo2  c Te3  c Still-Weber 2  8.11     0.390      10.9      0.00     0.000  3.750
Mo2  c Te4  c Still-Weber 2  8.11     0.390      10.9      0.00     0.000  3.750
Mo2  c Mo2  c Still-Weber 2  1.37     0.744      33.0      0.00     0.000  4.000
Mo1  c Mo2  c Still-Weber 2  3.82     0.966      30.7      0.00     0.000  3.800
--------------------------------------------------------------------------------

  General Three-body potentials :

  Stillinger-Weber form:

--------------------------------------------------------------------------------
       Atom Types        Force Cst    Theta      Rhos           Cutoffs  
   1       2       3        (eV)                (Angs)     1-2    1-3    2-3  
--------------------------------------------------------------------------------
Mo2   c Te1   c Te3   c   15.92       84.050 1.404 1.997  0.000  0.000  0.000
                                                          3.750  3.750 14.200
Mo2   c Te1   c Te4   c   15.92       98.050 1.404 1.997  0.000  0.000  0.000
                                                          3.750  3.750 14.600
Mo2   c Te2   c Te3   c   15.92      156.500 1.404 1.997  0.000  0.000  0.000
                                                          3.750  3.750 15.900
Mo2   c Te2   c Te4   c   15.92       82.500 1.404 1.997  0.000  0.000  0.000
                                                          3.750  3.750 14.200
Mo2   c Te1   c Te2   c   32.19       77.450 1.211 1.211  0.000  0.000  0.000
                                                          3.750  3.750 14.000
Mo2   c Te1   c Te1   c   32.19       76.750 1.211 1.211  0.000  0.000  0.000
                                                          3.750  3.750 14.500
Mo2   c Te4   c Te4   c   21.01       80.150 2.480 2.480  0.000  0.000  0.000
                                                          3.750  3.750 14.500
Mo2   c Te3   c Te4   c   21.01      115.750 2.480 2.480  0.000  0.000  0.000
                                                          3.750  3.750 15.500
Te1   c Mo2   c Mo2   c   12.18       76.040 4.632 4.632  0.000  0.000  0.000
                                                          3.750  3.750 14.250
Te4   c Mo2   c Mo2   c   14.72       80.140 4.398 4.398  0.000  0.000  0.000
                                                          3.750  3.750 14.250
Mo1   c Te1   c Te3   c   15.92       82.500 1.404 1.997  0.000  0.000  0.000
                                                          3.750  3.750 14.200
Mo1   c Te1   c Te4   c   15.92      156.500 1.404 1.997  0.000  0.000  0.000
                                                          3.750  3.750 15.900
Mo1   c Te2   c Te3   c   15.92       98.050 1.404 1.997  0.000  0.000  0.000
                                                          3.750  3.750 14.600
Mo1   c Te2   c Te4   c   15.92       84.050 1.404 1.997  0.000  0.000  0.000
                                                          3.750  3.750 14.200
Mo1   c Te1   c Te2   c   32.19       77.450 1.211 1.211  0.000  0.000  0.000
                                                          3.750  3.750 14.000
Mo1   c Te2   c Te2   c   32.19       76.750 1.211 1.211  0.000  0.000  0.000
                                                          3.750  3.750 14.500
Mo1   c Te3   c Te3   c   21.01       80.150 2.480 2.480  0.000  0.000  0.000
                                                          3.750  3.750 14.500
Mo1   c Te3   c Te4   c   21.01      115.750 2.480 2.480  0.000  0.000  0.000
                                                          3.750  3.750 15.500
Te2   c Mo1   c Mo1   c   12.18       76.040 4.632 4.632  0.000  0.000  0.000
                                                          3.750  3.750 14.250
Te3   c Mo1   c Mo1   c   14.72       80.140 4.398 4.398  0.000  0.000  0.000
                                                          3.750  3.750 14.250
--------------------------------------------------------------------------------

********************************************************************************
*  Output for configuration   1                                                *
********************************************************************************


  Components of energy : 

--------------------------------------------------------------------------------
  Interatomic potentials     =         -42.18522687 eV
  Three-body potentials      =           1.56533064 eV
  Monopole - monopole (real) =           0.00000000 eV
  Monopole - monopole (recip)=           0.00000000 eV
  Monopole - monopole (total)=           0.00000000 eV
--------------------------------------------------------------------------------
  Total lattice energy       =         -40.61989623 eV
--------------------------------------------------------------------------------
  Total lattice energy       =           -3919.1991 kJ/(mole unit cells)
--------------------------------------------------------------------------------


  Number of variables =       15

  Maximum number of calculations  =          1000
  Maximum Hessian update interval =            10
  Maximum step size               =   1.000000000
  Maximum parameter tolerance     =   0.000010000
  Maximum function  tolerance     =   0.000010000
  Maximum gradient  tolerance     =   0.001000000
  Maximum gradient  component     =   0.010000000

  Symmetry not applied to optimisation

  Newton-Raphson optimiser to be used

  BFGS hessian update to be used

  Start of bulk optimisation :

  Cycle:      0 Energy:       -40.619896  Gnorm:      1.726469  CPU:    0.006
  ** Hessian calculated **
  Cycle:      1 Energy:       -40.877032  Gnorm:      0.401055  CPU:    0.008
  Cycle:      2 Energy:       -40.881761  Gnorm:      0.095334  CPU:    0.009
  Cycle:      3 Energy:       -40.882073  Gnorm:      0.004045  CPU:    0.010
  Cycle:      4 Energy:       -40.882074  Gnorm:      0.001257  CPU:    0.010


  **** Optimisation achieved ****


  Final energy =     -40.88207389 eV
  Final Gnorm  =       0.00001032

  Components of energy : 

--------------------------------------------------------------------------------
  Interatomic potentials     =         -42.11638125 eV
  Three-body potentials      =           1.23430737 eV
  Monopole - monopole (real) =           0.00000000 eV
  Monopole - monopole (recip)=           0.00000000 eV
  Monopole - monopole (total)=           0.00000000 eV
--------------------------------------------------------------------------------
  Total lattice energy       =         -40.88207389 eV
--------------------------------------------------------------------------------
  Total lattice energy       =           -3944.4952 kJ/(mole unit cells)
--------------------------------------------------------------------------------

  Final fractional coordinates of atoms :

--------------------------------------------------------------------------------
   No.  Atomic        x           y          z          Radius
        Label       (Frac)      (Frac)     (Frac)       (Angs) 
--------------------------------------------------------------------------------
     1  Mo1   c     0.000038    0.728380    0.504656    0.000000
     2  Mo2   c     0.500038    0.067712    0.498872    0.000000
     3  Te1   c     0.000038    0.336188    0.574347    0.000000
     4  Te2   c     0.500038    0.459903    0.429181    0.000000
     5  Te3   c     0.500038    0.815326    0.610525    0.000000
     6  Te4   c     0.000038    0.980765    0.393003    0.000000
--------------------------------------------------------------------------------

  Final internal derivatives :

--------------------------------------------------------------------------------
   No.  Atomic          a             b             c           Radius
        Label          (eV)          (eV)          (eV)        (eV/Angs)
--------------------------------------------------------------------------------
      1 Mo1   c       0.000000      0.000000      0.000000      0.000000
      2 Mo2   c       0.000000      0.000009     -0.000118      0.000000
      3 Te1   c      -0.000000      0.000008      0.000046      0.000000
      4 Te2   c      -0.000000     -0.000059      0.000011      0.000000
      5 Te3   c      -0.000000     -0.000003      0.000063      0.000000
      6 Te4   c       0.000000      0.000005     -0.000014      0.000000
--------------------------------------------------------------------------------
  Maximum abs         0.000000      0.000059      0.000118      0.000000
--------------------------------------------------------------------------------

  Comparison of initial and final structures : 

--------------------------------------------------------------------------------
  Parameter   Initial value   Final value   Difference    Units      Percent
--------------------------------------------------------------------------------
      1 x          0.000038      0.000038     0.000000    Fractional   0.00
      1 y          0.728380      0.728380     0.000000    Fractional   0.00
      1 z          0.504656      0.504656     0.000000    Fractional   0.00
      2 x          0.500039      0.500038     0.000001    Fractional   0.00
      2 y          0.091846      0.067712     0.024134    Fractional  26.28
      2 z          0.495330      0.498872     0.003542    Fractional   0.72
      3 x          0.000036      0.000038     0.000002    Fractional   4.65
      3 y          0.339126      0.336188     0.002937    Fractional   0.87
      3 z          0.579791      0.574347     0.005443    Fractional   0.94
      4 x          0.500036      0.500038     0.000002    Fractional   0.00
      4 y          0.481102      0.459903     0.021199    Fractional   4.41
      4 z          0.420187      0.429181     0.008993    Fractional   2.14
      5 x          0.500039      0.500038     0.000001    Fractional   0.00
      5 y          0.833550      0.815326     0.018225    Fractional   2.19
      5 z          0.605901      0.610525     0.004624    Fractional   0.76
      6 x          0.000038      0.000038     0.000000    Fractional   0.77
      6 y          0.986667      0.980765     0.005902    Fractional   0.60
      6 z          0.394086      0.393003     0.001084    Fractional   0.27
--------------------------------------------------------------------------------



  Elastic Constant Matrix: (Units=GPa)

-------------------------------------------------------------------------------
  Indices      1         2         3         4         5         6    
-------------------------------------------------------------------------------
       1     47.9168   19.7926    0.0000   -0.0000    0.0000    0.0000
       2     19.7926   56.6143   -0.0000   -0.0000   -0.0000    0.0000
       3      0.0000   -0.0000   -0.0000    0.0000    0.0000   -0.0000
       4     -0.0000   -0.0000    0.0000   -1.7301   -0.0000    0.0000
       5      0.0000   -0.0000    0.0000   -0.0000   -1.3790   -0.0000
       6      0.0000    0.0000   -0.0000    0.0000   -0.0000   17.9832
-------------------------------------------------------------------------------


  Elastic Compliance Matrix: (Units=1/GPa)

-------------------------------------------------------------------------------
  Indices      1         2         3         4         5         6    
-------------------------------------------------------------------------------
       1    0.024392 -0.008527  0.005766  0.000000  0.000000 -0.000000
       2   -0.008527  0.020645 -0.013508 -0.000000 -0.000000 -0.000000
       3    0.005766 -0.013508********** -0.000000 -0.000000 -0.000000
       4    0.000000 -0.000000 -0.000000 -0.577996  0.000000  0.000000
       5    0.000000 -0.000000 -0.000000  0.000000 -0.725147 -0.000000
       6   -0.000000 -0.000000 -0.000000  0.000000 -0.000000  0.055607
-------------------------------------------------------------------------------

  Mechanical properties :

-------------------------------------------------------------------------------
  Convention :                    Reuss         Voigt         Hill
-------------------------------------------------------------------------------
  Bulk  Modulus (GPa)     =      -0.00000      16.01291       8.00645
  Shear Modulus (GPa)     =      -0.00002       8.62405       4.31201
-------------------------------------------------------------------------------
  Velocity S-wave (km/s)  =      -0.00241       1.72496       1.21973
  Velocity P-wave (km/s)  =       0.00305       3.08092       2.17854
-------------------------------------------------------------------------------
  Compressibility (1/GPa) = *************
-------------------------------------------------------------------------------
  Stress axis :                     x             y             z
-------------------------------------------------------------------------------
  Youngs Moduli (GPa)     =      40.99727      48.43879      -0.00000
-------------------------------------------------------------------------------
  Poissons Ratio (x)      =                     0.41306       0.00000
  Poissons Ratio (y)      =       0.34960                    -0.00000
  Poissons Ratio (z)      =      -0.23638       0.65431
-------------------------------------------------------------------------------


  Piezoelectric Strain Matrix: (Units=C/m**2)

-------------------------------------------------------------------------------
  Indices      1         2         3         4         5         6    
-------------------------------------------------------------------------------
       x    -0.00000  -0.00000  -0.00000  -0.00000  -0.00000  -0.00000
       y    -0.00000  -0.00000  -0.00000  -0.00000  -0.00000  -0.00000
       z    -0.00000  -0.00000  -0.00000  -0.00000  -0.00000  -0.00000
-------------------------------------------------------------------------------


  Piezoelectric Stress Matrix: (Units=10**-11 C/N)

-------------------------------------------------------------------------------
  Indices      1         2         3         4         5         6    
-------------------------------------------------------------------------------
       x     0.00000   0.00000   0.00000   0.00000   0.00000   0.00000
       y     0.00000   0.00000   0.00000   0.00000   0.00000   0.00000
       z     0.00000   0.00000   0.00000   0.00000   0.00000   0.00000
-------------------------------------------------------------------------------


  Static dielectric constant tensor : 

-------------------------------------------------------------------------------
              x         y         z
-------------------------------------------------------------------------------
       x     1.00000   0.00000   0.00000
       y     0.00000   1.00000   0.00000
       z     0.00000   0.00000   1.00000
--------------------------------------------------------------------------------

  Static refractive indices : 

-------------------------------------------------------------------------------
    1 =    1.00000      2 =    1.00000      3 =    1.00000
-------------------------------------------------------------------------------


  Phonon Calculation : 

  K direction for n-a correction at gamma =  1.00000  1.00000  1.00000

  Number of k points for this configuration =      157

--------------------------------------------------------------------------------
  Phonon properties (per mole of unit cells): Temperature =      0.000 K
--------------------------------------------------------------------------------
  Zero point energy            =        0.161102 eV
--------------------------------------------------------------------------------

  Phonon density of states : 

--------------------------------------------------------------------------------
 Frequency (cm-1) Density of States                                             
--------------------------------------------------------------------------------
    0.00000 |                                                              0.000
    4.33674 |**********                                                    0.009
    8.67348 |                                                              0.000
   13.01022 |                                                              0.000
   17.34695 |                                                              0.000
   21.68369 |**********                                                    0.009
   26.02043 |**********                                                    0.009
   30.35717 |                                                              0.000
   34.69391 |                                                              0.000
   39.03065 |                                                              0.000
   43.36739 |********************                                          0.018
   47.70412 |**********                                                    0.009
   52.04086 |**********                                                    0.009
   56.37760 |                                                              0.000
   60.71434 |**********                                                    0.009
   65.05108 |**********                                                    0.009
   69.38782 |******************************                                0.027
   73.72456 |*****                                                         0.004
   78.06129 |******************************                                0.027
   82.39803 |****************************************                      0.036
   86.73477 |**********                                                    0.009
   91.07151 |*************************                                     0.022
   95.40825 |********************                                          0.018
   99.74499 |********************                                          0.018
  104.08173 |******************************                                0.027
  108.41846 |*********************************************                 0.040
  112.75520 |***********************************************************   0.053
  117.09194 |*************************                                     0.022
  121.42868 |******************************                                0.027
  125.76542 |*************************                                     0.022
  130.10216 |*************************                                     0.022
  134.43890 |*************************************************             0.044
  138.77564 |***************                                               0.013
  143.11237 |*************************                                     0.022
  147.44911 |******************************                                0.027
  151.78585 |******************************                                0.027
  156.12259 |*************************                                     0.022
  160.45933 |******************************************************        0.049
  164.79607 |**********                                                    0.009
  169.13281 |                                                              0.000
  173.46954 |                                                              0.000
  177.80628 |*************************                                     0.022
  182.14302 |*****                                                         0.004
  186.47976 |***************                                               0.013
  190.81650 |********************                                          0.018
  195.15324 |********************                                          0.018
  199.48998 |**********                                                    0.009
  203.82671 |******************************                                0.027
  208.16345 |***************                                               0.013
  212.50019 |***************                                               0.013
  216.83693 |*************************                                     0.022
  221.17367 |********************                                          0.018
  225.51041 |                                                              0.000
  229.84715 |************************                                      0.022
  234.18388 |*************************                                     0.022
  238.52062 |                                                              0.000
  242.85736 |                                                              0.000
  247.19410 |                                                              0.000
  251.53084 |                                                              0.000
  255.86758 |                                                              0.000
  260.20432 |*************************                                     0.022
  264.54105 |*************************                                     0.022
  268.87779 |*************************                                     0.022
  273.21453 |*************************************************             0.044
--------------------------------------------------------------------------------




  Phonon density of states written as phonon.dens                   



  Phonon dispersion curves : 

--------------------------------------------------------------------------------
  Section number =   1
--------------------------------------------------------------------------------
  Frequency (cm-1) Phonon dispersion                                            
--------------------------------------------------------------------------------
   276.84   |                                          ******************
   265.31   |******************************************                  
   253.77   |************************************************************
   242.24   |                                                            
   230.70   |                                                            
   219.17   |                                                            
   207.63   |************************************************************
   196.10   |                       ****************                     
   184.56   |                                       *********************
   173.03   |************************************************************
   161.49   |************************************************************
   149.96   |                                  **************************
   138.42   |**********************************                          
   126.89   |**********************************************              
   115.35   |************************************************************
   103.82   |************************************************************
    92.28   |************************                      ********      
    80.75   |**********************************************              
    69.21   |                            ***********      ***************
    57.68   |                            *********************           
    46.14   |                      *******              *****************
    34.61   |                 ******        ************       **********
    23.07   |           ******   ***********          *********          
    11.54   |      **************          ***********                   
     0.00   |**********            *********                             
--------------------------------------------------------------------------------


  Phonon dispersion written as phonon.disp                   

  Time to end of optimisation =       0.0387 seconds


  Peak dynamic memory used =       0.55 MB 


  Timing analysis for GULP :

--------------------------------------------------------------------------------
  Task / Subroutine                                          Time (Seconds)
--------------------------------------------------------------------------------
  Calculation of real space energy and derivatives                0.0102
  Calculation of three-body energy and derivatives                0.0106
  Calculation of phonons                                          0.0268
  Calculation of scattering                                       0.0000
  Disk read/write operations to scratch files                     0.0002
--------------------------------------------------------------------------------
  Total CPU time                                                  0.0387
--------------------------------------------------------------------------------


  Job Finished at 16:45.21  7th March      2019                               

