********************************************************************************
*                       GENERAL UTILITY LATTICE PROGRAM                        *
*                                 Julian Gale                                  *
*                      Nanochemistry Research Institute                        *
*                           Department of Chemistry                            *
*                    Curtin University, Western Australia                      *
********************************************************************************
* Version = 4.4.2 * Last modified = 20th June 2016                             *
********************************************************************************
*  single       - perform a single point run                                   *
*  property     - calculate properties for final geometry                      *
********************************************************************************

  Job Started  at 16:49.27  8th March      2019                               

  Number of CPUs =     1


  Total number of configurations input =   1

********************************************************************************
*  Input for Configuration =   1                                               *
********************************************************************************

  Formula = SC3H6                                                       

  Number of irreducible atoms/shells =      10


  Total number atoms/shells =      10

  Dimensionality = 0               :  Cluster


  Charge on cluster =   0.000000


  Initial cluster dipoles : x =      0.000000 e.Angs
                            y =      0.000000 e.Angs
                            z =      0.000000 e.Angs

  Temperature of configuration =  0.000     K 

  Symmetry number =      1

  Cartesian coordinates of cluster :

--------------------------------------------------------------------------------
   No.  Atomic       x           y          z         Charge      Occupancy
        Label      (Angs)      (Angs)     (Angs)        (e)         (Frac)  
--------------------------------------------------------------------------------
      1 S     c     -2.0274     -0.0002     -0.0055     0.00000    1.000000    
      2 C     c      0.4726      0.0000     -0.0005     0.00000    1.000000    
      3 C     c      1.1395      1.3017      0.0007     0.00000    1.000000    
      4 C     c      1.1397     -1.3015      0.0008     0.00000    1.000000    
      5 H     c      1.8002      1.3787      0.8808     0.00000    1.000000    
      6 H     c      1.8035      1.3786     -0.8770     0.00000    1.000000    
      7 H     c      0.4335      2.1310     -0.0007     0.00000    1.000000    
      8 H     c      0.4340     -2.1310      0.0001     0.00000    1.000000    
      9 H     c      1.8010     -1.3781      0.8806     0.00000    1.000000    
     10 H     c      1.8032     -1.3786     -0.8772     0.00000    1.000000    
--------------------------------------------------------------------------------



********************************************************************************
*  General input information                                                   *
********************************************************************************

  Species output for all configurations : 

--------------------------------------------------------------------------------
  Species    Type    Atomic    Atomic    Charge       Radii (Angs)     Library
                     Number     Mass       (e)     Cova   Ionic  VDW   Symbol
--------------------------------------------------------------------------------
    S        Core       16      32.07   0.000000   1.020  0.000  1.700          
    C        Core        6      12.01   0.000000   0.770  0.000  1.530          
    H        Core        1       1.01   0.000000   0.370  0.000  1.080          
--------------------------------------------------------------------------------


  Accuracy factor for short range sums = 12.000

  Time limit = Infinity

  Maximum range for interatomic potentials =    100000.000000 Angstroms

  ReaxFF forcefield to be used

  ReaxFF Coulomb cutoff =  10.0000 Ang
  ReaxFF VDW     cutoff =  10.0000 Ang
  ReaxFF H-bond  cutoff =   7.5000 Ang

  ReaxFF pairwise bond order       threshold = 0.00100000000000
  ReaxFF angle/torsion bond order  threshold = 0.00100000000000
  ReaxFF bond order double product threshold = 0.00000100000000
  ReaxFF bond order triple product threshold = 0.00000000100000
  ReaxFF hydrogen-bond bond order  threshold = 0.01000000000000


********************************************************************************
*  Output for configuration   1                                                *
********************************************************************************


  Components of energy : 

--------------------------------------------------------------------------------
  Interatomic potentials     =           0.00000000 eV
  ReaxFF force field         =         -39.38915533 eV
  Monopole - monopole (real) =           0.00000000 eV
--------------------------------------------------------------------------------
  Total lattice energy       =         -39.38915533 eV
--------------------------------------------------------------------------------
  Total lattice energy       =           -3800.4514 kJ/mol
--------------------------------------------------------------------------------


  Moment of inertia tensor (10^-46 x kgm^2): 

-------------------------------------------------------------------------------
                x           y           z           Principal axis system
-------------------------------------------------------------------------------
       x         10.07       -0.00       -0.06           10.074020
       y         -0.00       29.01        0.00           29.005099
       z         -0.06        0.00       38.04           38.042700
-------------------------------------------------------------------------------
  Centre of mass (Ang) =    -0.321115    -0.000064    -0.002122
-------------------------------------------------------------------------------


  Time to end of properties =       0.0210 seconds


  Peak dynamic memory used =       0.51 MB 


  Timing analysis for GULP :

--------------------------------------------------------------------------------
  Task / Subroutine                                          Time (Seconds)
--------------------------------------------------------------------------------
  Calculation of reaxFF energy and derivatives                    0.0157
  Electronegativity equalisation                                  0.0005
--------------------------------------------------------------------------------
  Total CPU time                                                  0.0211
--------------------------------------------------------------------------------


  Job Finished at 16:49.27  8th March      2019                               

