********************************************************************************
*                       GENERAL UTILITY LATTICE PROGRAM                        *
*                                 Julian Gale                                  *
*                      Nanochemistry Research Institute                        *
*                           Department of Chemistry                            *
*                    Curtin University, Western Australia                      *
********************************************************************************
* Version = 4.4.2 * Last modified = 20th June 2016                             *
********************************************************************************
*  single       - perform a single point run                                   *
*  phonon       - calculate phonons for final geometry                         *
*  nofrequency  - suppress frequency output after phonon calculation           *
********************************************************************************

  Job Started  at 16:44.48  7th March      2019                               

  Number of CPUs =     1


  Total number of configurations input =   1

********************************************************************************
*  Input for Configuration =   1                                               *
********************************************************************************

  Formula = Mo2Te4                                                      

  Number of irreducible atoms/shells =       6


  Total number atoms/shells =       6

  Dimensionality = 3               :  Bulk   



  Cartesian lattice vectors (Angstroms) :

        3.310132    0.000000    0.000000
        0.000000    6.033863    0.000000
        0.000000    0.000000   20.145149

  Cell parameters (Angstroms/Degrees):

  a =       3.3101    alpha =  90.0000
  b =       6.0339    beta  =  90.0000
  c =      20.1451    gamma =  90.0000

  Initial cell volume =         402.356679 Angs**3

  Shrinking factors =      5     5     5

  Temperature of configuration =  0.000     K 

  Pressure of configuration =         0.000 GPa 

  Fractional coordinates of asymmetric unit :

--------------------------------------------------------------------------------
   No.  Atomic       x           y          z         Charge      Occupancy
        Label      (Frac)      (Frac)     (Frac)        (e)         (Frac)  
--------------------------------------------------------------------------------
      1 Mo1   c    0.000038    0.728380    0.504656     0.00000    1.000000    
      2 Mo2   c    0.500038    0.091846    0.495330     0.00000    1.000000    
      3 Te1   c    0.000036    0.339125    0.579792     0.00000    1.000000    
      4 Te2   c    0.500037    0.481103    0.420188     0.00000    1.000000    
      5 Te3   c    0.500039    0.833551    0.605902     0.00000    1.000000    
      6 Te4   c    0.000038    0.986667    0.394086     0.00000    1.000000    
--------------------------------------------------------------------------------


  Brillouin zone sampling points :

--------------------------------------------------------------------------------
  Point number          x          y          z            Weight
--------------------------------------------------------------------------------
        1           0.000000   0.000000   0.000000         0.0069
        2           0.000000   0.006173   0.000000         0.0069
        3           0.000000   0.012346   0.000000         0.0069
        4           0.000000   0.018519   0.000000         0.0069
        5           0.000000   0.024691   0.000000         0.0069
        6           0.000000   0.030864   0.000000         0.0069
        7           0.000000   0.037037   0.000000         0.0069
        8           0.000000   0.043210   0.000000         0.0069
        9           0.000000   0.049383   0.000000         0.0069
       10           0.000000   0.055556   0.000000         0.0069
       11           0.000000   0.061728   0.000000         0.0069
       12           0.000000   0.067901   0.000000         0.0069
       13           0.000000   0.074074   0.000000         0.0069
       14           0.000000   0.080247   0.000000         0.0069
       15           0.000000   0.086420   0.000000         0.0069
       16           0.000000   0.092593   0.000000         0.0069
       17           0.000000   0.098765   0.000000         0.0069
       18           0.000000   0.104938   0.000000         0.0069
       19           0.000000   0.111111   0.000000         0.0069
       20           0.000000   0.117284   0.000000         0.0069
       21           0.000000   0.123457   0.000000         0.0069
       22           0.000000   0.129630   0.000000         0.0069
       23           0.000000   0.135802   0.000000         0.0069
       24           0.000000   0.141975   0.000000         0.0069
       25           0.000000   0.148148   0.000000         0.0069
       26           0.000000   0.154321   0.000000         0.0069
       27           0.000000   0.160494   0.000000         0.0069
       28           0.000000   0.166667   0.000000         0.0069
       29           0.000000   0.172840   0.000000         0.0069
       30           0.000000   0.179012   0.000000         0.0069
       31           0.000000   0.185185   0.000000         0.0069
       32           0.000000   0.191358   0.000000         0.0069
       33           0.000000   0.197531   0.000000         0.0069
       34           0.000000   0.203704   0.000000         0.0069
       35           0.000000   0.209877   0.000000         0.0069
       36           0.000000   0.216049   0.000000         0.0069
       37           0.000000   0.222222   0.000000         0.0069
       38           0.000000   0.228395   0.000000         0.0069
       39           0.000000   0.234568   0.000000         0.0069
       40           0.000000   0.240741   0.000000         0.0069
       41           0.000000   0.246914   0.000000         0.0069
       42           0.000000   0.253086   0.000000         0.0069
       43           0.000000   0.259259   0.000000         0.0069
       44           0.000000   0.265432   0.000000         0.0069
       45           0.000000   0.271605   0.000000         0.0069
       46           0.000000   0.277778   0.000000         0.0069
       47           0.000000   0.283951   0.000000         0.0069
       48           0.000000   0.290123   0.000000         0.0069
       49           0.000000   0.296296   0.000000         0.0069
       50           0.000000   0.302469   0.000000         0.0069
       51           0.000000   0.308642   0.000000         0.0069
       52           0.000000   0.314815   0.000000         0.0069
       53           0.000000   0.320988   0.000000         0.0069
       54           0.000000   0.327160   0.000000         0.0069
       55           0.000000   0.333333   0.000000         0.0069
       56           0.000000   0.339506   0.000000         0.0069
       57           0.000000   0.345679   0.000000         0.0069
       58           0.000000   0.351852   0.000000         0.0069
       59           0.000000   0.358025   0.000000         0.0069
       60           0.000000   0.364198   0.000000         0.0069
       61           0.000000   0.370370   0.000000         0.0069
       62           0.000000   0.376543   0.000000         0.0069
       63           0.000000   0.382716   0.000000         0.0069
       64           0.000000   0.388889   0.000000         0.0069
       65           0.000000   0.395062   0.000000         0.0069
       66           0.000000   0.401235   0.000000         0.0069
       67           0.000000   0.407407   0.000000         0.0069
       68           0.000000   0.413580   0.000000         0.0069
       69           0.000000   0.419753   0.000000         0.0069
       70           0.000000   0.425926   0.000000         0.0069
       71           0.000000   0.432099   0.000000         0.0069
       72           0.000000   0.438272   0.000000         0.0069
       73           0.000000   0.444444   0.000000         0.0069
       74           0.000000   0.450617   0.000000         0.0069
       75           0.000000   0.456790   0.000000         0.0069
       76           0.000000   0.462963   0.000000         0.0069
       77           0.000000   0.469136   0.000000         0.0069
       78           0.000000   0.475309   0.000000         0.0069
       79           0.000000   0.481481   0.000000         0.0069
       80           0.000000   0.487654   0.000000         0.0069
       81           0.000000   0.493827   0.000000         0.0069
       82           0.000000   0.500000   0.000000         0.0069
       83           0.100000   0.100000   0.100000         0.0069
       84           0.100000   0.100000   0.300000         0.0069
       85           0.100000   0.100000   0.500000         0.0069
       86           0.100000   0.100000   0.700000         0.0069
       87           0.100000   0.100000   0.900000         0.0069
       88           0.100000   0.300000   0.100000         0.0069
       89           0.100000   0.300000   0.300000         0.0069
       90           0.100000   0.300000   0.500000         0.0069
       91           0.100000   0.300000   0.700000         0.0069
       92           0.100000   0.300000   0.900000         0.0069
       93           0.100000   0.500000   0.100000         0.0069
       94           0.100000   0.500000   0.300000         0.0069
       95           0.100000   0.500000   0.500000         0.0069
       96           0.100000   0.500000   0.700000         0.0069
       97           0.100000   0.500000   0.900000         0.0069
       98           0.100000   0.700000   0.100000         0.0069
       99           0.100000   0.700000   0.300000         0.0069
      100           0.100000   0.700000   0.500000         0.0069
      101           0.100000   0.700000   0.700000         0.0069
      102           0.100000   0.700000   0.900000         0.0069
      103           0.100000   0.900000   0.100000         0.0069
      104           0.100000   0.900000   0.300000         0.0069
      105           0.100000   0.900000   0.500000         0.0069
      106           0.100000   0.900000   0.700000         0.0069
      107           0.100000   0.900000   0.900000         0.0069
      108           0.300000   0.100000   0.100000         0.0069
      109           0.300000   0.100000   0.300000         0.0069
      110           0.300000   0.100000   0.500000         0.0069
      111           0.300000   0.100000   0.700000         0.0069
      112           0.300000   0.100000   0.900000         0.0069
      113           0.300000   0.300000   0.100000         0.0069
      114           0.300000   0.300000   0.300000         0.0069
      115           0.300000   0.300000   0.500000         0.0069
      116           0.300000   0.300000   0.700000         0.0069
      117           0.300000   0.300000   0.900000         0.0069
      118           0.300000   0.500000   0.100000         0.0069
      119           0.300000   0.500000   0.300000         0.0069
      120           0.300000   0.500000   0.500000         0.0069
      121           0.300000   0.500000   0.700000         0.0069
      122           0.300000   0.500000   0.900000         0.0069
      123           0.300000   0.700000   0.100000         0.0069
      124           0.300000   0.700000   0.300000         0.0069
      125           0.300000   0.700000   0.500000         0.0069
      126           0.300000   0.700000   0.700000         0.0069
      127           0.300000   0.700000   0.900000         0.0069
      128           0.300000   0.900000   0.100000         0.0069
      129           0.300000   0.900000   0.300000         0.0069
      130           0.300000   0.900000   0.500000         0.0069
      131           0.300000   0.900000   0.700000         0.0069
      132           0.300000   0.900000   0.900000         0.0069
      133           0.500000   0.100000   0.100000         0.0035
      134           0.500000   0.100000   0.300000         0.0035
      135           0.500000   0.100000   0.500000         0.0035
      136           0.500000   0.100000   0.700000         0.0035
      137           0.500000   0.100000   0.900000         0.0035
      138           0.500000   0.300000   0.100000         0.0035
      139           0.500000   0.300000   0.300000         0.0035
      140           0.500000   0.300000   0.500000         0.0035
      141           0.500000   0.300000   0.700000         0.0035
      142           0.500000   0.300000   0.900000         0.0035
      143           0.500000   0.500000   0.100000         0.0035
      144           0.500000   0.500000   0.300000         0.0035
      145           0.500000   0.500000   0.500000         0.0035
      146           0.500000   0.500000   0.700000         0.0035
      147           0.500000   0.500000   0.900000         0.0035
      148           0.500000   0.700000   0.100000         0.0035
      149           0.500000   0.700000   0.300000         0.0035
      150           0.500000   0.700000   0.500000         0.0035
      151           0.500000   0.700000   0.700000         0.0035
      152           0.500000   0.700000   0.900000         0.0035
      153           0.500000   0.900000   0.100000         0.0035
      154           0.500000   0.900000   0.300000         0.0035
      155           0.500000   0.900000   0.500000         0.0035
      156           0.500000   0.900000   0.700000         0.0035
      157           0.500000   0.900000   0.900000         0.0035
--------------------------------------------------------------------------------


********************************************************************************
*  General input information                                                   *
********************************************************************************

  Species output for all configurations : 

--------------------------------------------------------------------------------
  Species    Type    Atomic    Atomic    Charge       Radii (Angs)     Library
                     Number     Mass       (e)     Cova   Ionic  VDW   Symbol
--------------------------------------------------------------------------------
    Mo1      Core       42      95.94   0.000000   1.470  0.000  2.190          
    Mo2      Core       42      95.94   0.000000   1.470  0.000  2.190          
    Te1      Core       52     127.60   0.000000   1.470  0.000  2.200          
    Te2      Core       52     127.60   0.000000   1.470  0.000  2.200          
    Te3      Core       52     127.60   0.000000   1.470  0.000  2.200          
    Te4      Core       52     127.60   0.000000   1.470  0.000  2.200          
--------------------------------------------------------------------------------


  Lattice summation method               =    Ewald          (3-D)
                                         =    Parry          (2-D)
                                         =    Saunders et al (1-D)
  Accuracy factor for lattice sums       =   12.000


  Time limit = Infinity

  Maximum range for interatomic potentials =    100000.000000 Angstroms

  General interatomic potentials :

--------------------------------------------------------------------------------
Atom  Types   Potential         A         B         C         D     Cutoffs(Ang)
  1     2                                                            Min    Max 
--------------------------------------------------------------------------------
Te1  c Te3  c Still-Weber 2  2.16      1.16      47.0      0.00     0.000  5.000
Te1  c Te4  c Still-Weber 2  2.16      1.16      47.0      0.00     0.000  5.000
Te2  c Te3  c Still-Weber 2  2.16      1.16      47.0      0.00     0.000  5.000
Te2  c Te4  c Still-Weber 2  2.16      1.16      47.0      0.00     0.000  5.000
Te1  c Te1  c Still-Weber 2  3.16      2.80      34.7      0.00     0.000  5.000
Te1  c Te2  c Still-Weber 2  3.16      2.80      34.7      0.00     0.000  5.000
Te2  c Te2  c Still-Weber 2  3.16      2.80      34.7      0.00     0.000  5.000
Te3  c Te3  c Still-Weber 2  2.50      2.36      87.5      0.00     0.000  5.000
Te3  c Te4  c Still-Weber 2  2.50      2.36      87.5      0.00     0.000  5.000
Te4  c Te4  c Still-Weber 2  2.50      2.36      87.5      0.00     0.000  5.000
Mo1  c Te1  c Still-Weber 2  3.46     0.681      28.3      0.00     0.000  3.750
Mo1  c Te2  c Still-Weber 2  3.46     0.681      28.3      0.00     0.000  3.750
Mo1  c Te3  c Still-Weber 2  8.11     0.390      10.9      0.00     0.000  3.750
Mo1  c Te4  c Still-Weber 2  8.11     0.390      10.9      0.00     0.000  3.750
Mo1  c Mo1  c Still-Weber 2  1.37     0.744      33.0      0.00     0.000  4.000
Mo2  c Te1  c Still-Weber 2  3.46     0.681      28.3      0.00     0.000  3.750
Mo2  c Te2  c Still-Weber 2  3.46     0.681      28.3      0.00     0.000  3.750
Mo2  c Te3  c Still-Weber 2  8.11     0.390      10.9      0.00     0.000  3.750
Mo2  c Te4  c Still-Weber 2  8.11     0.390      10.9      0.00     0.000  3.750
Mo2  c Mo2  c Still-Weber 2  1.37     0.744      33.0      0.00     0.000  4.000
Mo1  c Mo2  c Still-Weber 2  3.82     0.966      30.7      0.00     0.000  3.800
--------------------------------------------------------------------------------

  General Three-body potentials :

  Stillinger-Weber form:

--------------------------------------------------------------------------------
       Atom Types        Force Cst    Theta      Rhos           Cutoffs  
   1       2       3        (eV)                (Angs)     1-2    1-3    2-3  
--------------------------------------------------------------------------------
Mo2   c Te1   c Te3   c   15.92       84.050 1.404 1.997  0.000  0.000  0.000
                                                          3.750  3.750 14.200
Mo2   c Te1   c Te4   c   15.92       98.050 1.404 1.997  0.000  0.000  0.000
                                                          3.750  3.750 14.600
Mo2   c Te2   c Te3   c   15.92      156.500 1.404 1.997  0.000  0.000  0.000
                                                          3.750  3.750 15.900
Mo2   c Te2   c Te4   c   15.92       82.500 1.404 1.997  0.000  0.000  0.000
                                                          3.750  3.750 14.200
Mo2   c Te1   c Te2   c   32.19       77.450 1.211 1.211  0.000  0.000  0.000
                                                          3.750  3.750 14.000
Mo2   c Te1   c Te1   c   32.19       76.750 1.211 1.211  0.000  0.000  0.000
                                                          3.750  3.750 14.500
Mo2   c Te4   c Te4   c   21.01       80.150 2.480 2.480  0.000  0.000  0.000
                                                          3.750  3.750 14.500
Mo2   c Te3   c Te4   c   21.01      115.750 2.480 2.480  0.000  0.000  0.000
                                                          3.750  3.750 15.500
Te1   c Mo2   c Mo2   c   12.18       76.040 4.632 4.632  0.000  0.000  0.000
                                                          3.750  3.750 14.250
Te4   c Mo2   c Mo2   c   14.72       80.140 4.398 4.398  0.000  0.000  0.000
                                                          3.750  3.750 14.250
Mo1   c Te1   c Te3   c   15.92       82.500 1.404 1.997  0.000  0.000  0.000
                                                          3.750  3.750 14.200
Mo1   c Te1   c Te4   c   15.92      156.500 1.404 1.997  0.000  0.000  0.000
                                                          3.750  3.750 15.900
Mo1   c Te2   c Te3   c   15.92       98.050 1.404 1.997  0.000  0.000  0.000
                                                          3.750  3.750 14.600
Mo1   c Te2   c Te4   c   15.92       84.050 1.404 1.997  0.000  0.000  0.000
                                                          3.750  3.750 14.200
Mo1   c Te1   c Te2   c   32.19       77.450 1.211 1.211  0.000  0.000  0.000
                                                          3.750  3.750 14.000
Mo1   c Te2   c Te2   c   32.19       76.750 1.211 1.211  0.000  0.000  0.000
                                                          3.750  3.750 14.500
Mo1   c Te3   c Te3   c   21.01       80.150 2.480 2.480  0.000  0.000  0.000
                                                          3.750  3.750 14.500
Mo1   c Te3   c Te4   c   21.01      115.750 2.480 2.480  0.000  0.000  0.000
                                                          3.750  3.750 15.500
Te2   c Mo1   c Mo1   c   12.18       76.040 4.632 4.632  0.000  0.000  0.000
                                                          3.750  3.750 14.250
Te3   c Mo1   c Mo1   c   14.72       80.140 4.398 4.398  0.000  0.000  0.000
                                                          3.750  3.750 14.250
--------------------------------------------------------------------------------

********************************************************************************
*  Output for configuration   1                                                *
********************************************************************************


  Components of energy : 

--------------------------------------------------------------------------------
  Interatomic potentials     =         -42.18519898 eV
  Three-body potentials      =           1.56529405 eV
  Monopole - monopole (real) =           0.00000000 eV
  Monopole - monopole (recip)=           0.00000000 eV
  Monopole - monopole (total)=           0.00000000 eV
--------------------------------------------------------------------------------
  Total lattice energy       =         -40.61990493 eV
--------------------------------------------------------------------------------
  Total lattice energy       =           -3919.1999 kJ/(mole unit cells)
--------------------------------------------------------------------------------


  Elastic Constant Matrix: (Units=GPa)

-------------------------------------------------------------------------------
  Indices      1         2         3         4         5         6    
-------------------------------------------------------------------------------
       1     47.6044   20.3580    0.1860   -0.2450   -0.0000    0.0000
       2     20.3580   57.2175   -0.0179    0.9767   -0.0000    0.0000
       3      0.1860   -0.0179   -0.4112    0.0919    0.0000    0.0000
       4     -0.2450    0.9767    0.0919   -1.9359   -0.0000   -0.0000
       5     -0.0000   -0.0000    0.0000   -0.0000   -1.6145    0.2644
       6      0.0000    0.0000    0.0000   -0.0000    0.2644   17.6502
-------------------------------------------------------------------------------


  Elastic Compliance Matrix: (Units=1/GPa)

-------------------------------------------------------------------------------
  Indices      1         2         3         4         5         6    
-------------------------------------------------------------------------------
       1    0.024626 -0.008639  0.009947 -0.007003 -0.000000  0.000000
       2   -0.008639  0.020358 -0.002276  0.011256  0.000000 -0.000000
       3    0.009947 -0.002276 -2.453839 -0.118877 -0.000002  0.000000
       4   -0.007003  0.011256 -0.118877 -0.515628  0.000000 -0.000000
       5   -0.000000  0.000000 -0.000002  0.000000 -0.617869  0.009255
       6    0.000000 -0.000000  0.000000 -0.000000  0.009255  0.056518
-------------------------------------------------------------------------------

  Mechanical properties :

-------------------------------------------------------------------------------
  Convention :                    Reuss         Voigt         Hill
-------------------------------------------------------------------------------
  Bulk  Modulus (GPa)     =      -0.41480      16.16256       7.87388
  Shear Modulus (GPa)     =      -1.16618       8.41227       3.62304
-------------------------------------------------------------------------------
  Velocity S-wave (km/s)  =      -0.63432       1.70364       1.11804
  Velocity P-wave (km/s)  =       0.82437       3.07348       2.09364
-------------------------------------------------------------------------------
  Compressibility (1/GPa) =   -2.41079122
-------------------------------------------------------------------------------
  Stress axis :                     x             y             z
-------------------------------------------------------------------------------
  Youngs Moduli (GPa)     =      40.60719      49.12027      -0.40752
-------------------------------------------------------------------------------
  Poissons Ratio (x)      =                     0.42437       0.00405
  Poissons Ratio (y)      =       0.35082                    -0.00093
  Poissons Ratio (z)      =      -0.40392       0.11179
-------------------------------------------------------------------------------


  Piezoelectric Strain Matrix: (Units=C/m**2)

-------------------------------------------------------------------------------
  Indices      1         2         3         4         5         6    
-------------------------------------------------------------------------------
       x    -0.00000  -0.00000  -0.00000  -0.00000  -0.00000  -0.00000
       y    -0.00000  -0.00000  -0.00000  -0.00000  -0.00000  -0.00000
       z    -0.00000  -0.00000  -0.00000  -0.00000  -0.00000  -0.00000
-------------------------------------------------------------------------------


  Piezoelectric Stress Matrix: (Units=10**-11 C/N)

-------------------------------------------------------------------------------
  Indices      1         2         3         4         5         6    
-------------------------------------------------------------------------------
       x     0.00000   0.00000   0.00000   0.00000   0.00000   0.00000
       y     0.00000   0.00000   0.00000   0.00000   0.00000   0.00000
       z     0.00000   0.00000   0.00000   0.00000   0.00000   0.00000
-------------------------------------------------------------------------------


  Static dielectric constant tensor : 

-------------------------------------------------------------------------------
              x         y         z
-------------------------------------------------------------------------------
       x     1.00000   0.00000   0.00000
       y     0.00000   1.00000   0.00000
       z     0.00000   0.00000   1.00000
--------------------------------------------------------------------------------

  Static refractive indices : 

-------------------------------------------------------------------------------
    1 =    1.00000      2 =    1.00000      3 =    1.00000
-------------------------------------------------------------------------------


  Phonon Calculation : 

  K direction for n-a correction at gamma =  1.00000  1.00000  1.00000

  Number of k points for this configuration =      157

--------------------------------------------------------------------------------
  Phonon properties (per mole of unit cells): Temperature =      0.000 K
--------------------------------------------------------------------------------
  Zero point energy            =        0.156115 eV
--------------------------------------------------------------------------------

  Phonon density of states : 

--------------------------------------------------------------------------------
 Frequency (cm-1) Density of States                                             
--------------------------------------------------------------------------------
    0.00000 |                                                              0.000
    4.32790 |************                                                  0.009
    8.65580 |                                                              0.000
   12.98369 |                                                              0.000
   17.31159 |                                                              0.000
   21.63949 |************                                                  0.009
   25.96739 |************                                                  0.009
   30.29529 |                                                              0.000
   34.62319 |                                                              0.000
   38.95108 |                                                              0.000
   43.27898 |************************                                      0.018
   47.60688 |************************                                      0.018
   51.93478 |                                                              0.000
   56.26268 |************                                                  0.009
   60.59058 |                                                              0.000
   64.91847 |************************                                      0.018
   69.24637 |******************************                                0.022
   73.57427 |************************************                          0.027
   77.90217 |******************************************                    0.031
   82.23007 |************************************                          0.027
   86.55797 |                                                              0.000
   90.88586 |************************************************              0.036
   95.21376 |***********************************************************   0.044
   99.54166 |******************************************                    0.031
  103.86956 |***********************************************************   0.044
  108.19746 |************************************************              0.036
  112.52536 |******************************                                0.022
  116.85325 |******************                                            0.013
  121.18115 |******                                                        0.004
  125.50905 |************************************                          0.027
  129.83695 |************************************************              0.036
  134.16485 |************************                                      0.018
  138.49274 |******************                                            0.013
  142.82064 |******************************************************        0.040
  147.14854 |************************************                          0.027
  151.47644 |******************                                            0.013
  155.80434 |******************************************************        0.040
  160.13224 |***********************************                           0.027
  164.46013 |                                                              0.000
  168.78803 |                                                              0.000
  173.11593 |************************                                      0.018
  177.44383 |******                                                        0.004
  181.77173 |******                                                        0.004
  186.09963 |                                                              0.000
  190.42752 |******************************                                0.022
  194.75542 |************                                                  0.009
  199.08332 |************************************                          0.027
  203.41122 |************************                                      0.018
  207.73912 |******************************                                0.022
  212.06702 |***********************************************************   0.044
  216.39491 |                                                              0.000
  220.72281 |************                                                  0.009
  225.05071 |*****************************                                 0.022
  229.37861 |******************************                                0.022
  233.70651 |                                                              0.000
  238.03440 |                                                              0.000
  242.36230 |                                                              0.000
  246.69020 |******************************                                0.022
  251.01810 |******                                                        0.004
  255.34600 |************************                                      0.018
  259.67390 |                                                              0.000
  264.00179 |******************************************                    0.031
  268.32969 |******************************                                0.022
  272.65759 |******************                                            0.013
--------------------------------------------------------------------------------




  Phonon density of states written as phonon.dens                   



  Phonon dispersion curves : 

--------------------------------------------------------------------------------
  Section number =   1
--------------------------------------------------------------------------------
  Frequency (cm-1) Phonon dispersion                                            
--------------------------------------------------------------------------------
   276.57   |                                            ****************
   265.05   |********************************************                
   253.53   |                                                            
   242.00   |************************************************************
   230.48   |                                                            
   218.95   |****************                                            
   207.43   |**********************************************              
   195.91   |************************************************************
   184.38   |                                        *****************   
   172.86   |                                                         ***
   161.34   |************************************************************
   149.81   |***********************              ***********************
   138.29   |*************************************                       
   126.76   |                   ********************                     
   115.24   |*******************************        *****************    
   103.72   |*******************            *****************************
    92.19   |************************************************************
    80.67   |************************************************            
    69.14   |                         ***********************************
    57.62   |                            ********************            
    46.10   |                      *******              *****************
    34.57   |                 ******        ************        *********
    23.05   |           ******   ***********          **********         
    11.52   |      **************          ***********                   
     0.00   |**********            *********                             
--------------------------------------------------------------------------------


  Phonon dispersion written as phonon.disp                   

  Time to end of properties =       0.0366 seconds


  Peak dynamic memory used =       0.55 MB 


  Timing analysis for GULP :

--------------------------------------------------------------------------------
  Task / Subroutine                                          Time (Seconds)
--------------------------------------------------------------------------------
  Calculation of real space energy and derivatives                0.0073
  Calculation of three-body energy and derivatives                0.0079
  Calculation of phonons                                          0.0230
  Calculation of scattering                                       0.0000
  Disk read/write operations to scratch files                     0.0001
--------------------------------------------------------------------------------
  Total CPU time                                                  0.0369
--------------------------------------------------------------------------------


  Job Finished at 16:44.48  7th March      2019                               

