
Running Job 1 of 1 CHOSx.in
qchem CHOSx.in_2674.0 /staging/pv/kris658/.QCSCRATCH/CHOSx.save/ 1
/usr/usc/qchem/5.1.1/exe/qcprog.exe_s CHOSx.in_2674.0 /staging/pv/kris658/.QCSCRATCH/CHOSx.save/
Check license passed

                  Welcome to Q-Chem
     A Quantum Leap Into The Future Of Chemistry


 Q-Chem 5.1, Q-Chem, Inc., Pleasanton, CA (2018)

 Yihan Shao,  Zhengting Gan,  E. Epifanovsky,  A. T. B. Gilbert,  M. Wormit,  
 J. Kussmann,  A. W. Lange,  A. Behn,  Jia Deng,  Xintian Feng,  D. Ghosh,  
 M. Goldey,  P. R. Horn,  L. D. Jacobson,  I. Kaliman,  T. Kus,  A. Landau,  
 Jie Liu,  E. I. Proynov,  R. M. Richard,  R. P. Steele,  E. J. Sundstrom,  
 H. L. Woodcock III,  P. M. Zimmerman,  D. Zuev,  B. Albrecht,  E. Alguire,  
 S. A. Baeppler,  D. Barton,  Z. Benda,  Y. A. Bernard,  E. J. Berquist,  
 K. B. Bravaya,  H. Burton,  D. Casanova,  Chun-Min Chang,  Yunqing Chen,  
 A. Chien,  K. D. Closser,  M. P. Coons,  S. Coriani,  S. Dasgupta,  
 A. L. Dempwolff,  M. Diedenhofen,  Hainam Do,  R. G. Edgar,  Po-Tung Fang,  
 S. Faraji,  S. Fatehi,  Qingguo Feng,  K. D. Fenk,  J. Fosso-Tande,  
 Qinghui Ge,  A. Ghysels,  G. Gidofalvi,  J. Gomes,  J. Gonthier,  A. Gunina,  
 D. Hait,  M. W. D. Hanson-Heine,  P. H. P. Harbach,  A. W. Hauser,  
 J. E. Herr,  E. G. Hohenstein,  Z. C. Holden,  Kerwin Hui,  B. C. Huynh,  
 T.-C. Jagau,  Hyunjun Ji,  B. Kaduk,  K. Khistyaev,  Jaehoon Kim,  
 P. Klunzinger,  K. Koh,  D. Kosenkov,  L. Koulias,  T. Kowalczyk,  
 C. M. Krauter,  A. Kunitsa,  Ka Un Lao,  A. Laurent,  K. V. Lawler,  
 Joonho Lee,  D. Lefrancois,  S. Lehtola,  D. S. Levine,  Yi-Pei Li,  
 You-Sheng Lin,  Fenglai Liu,  E. Livshits,  A. Luenser,  P. Manohar,  
 E. Mansoor,  S. F. Manzer,  Shan-Ping Mao,  Yuezhi Mao,  N. Mardirossian,  
 A. V. Marenich,  T. Markovich,  L. A. Martinez-Martinez,  S. A. Maurer,  
 N. J. Mayhall,  S. C. McKenzie,  J.-M. Mewes,  A. F. Morrison,  
 J. W. Mullinax,  K. Nanda,  T. S. Nguyen-Beck,  R. Olivares-Amaya,  
 J. A. Parkhill,  T. M. Perrine,  F. Plasser,  P. Pokhilko,  S. Prager,  
 A. Prociuk,  E. Ramos,  D. R. Rehn,  F. Rob,  M. Schneider,  N. Sergueev,  
 S. M. Sharada,  S. Sharma,  D. W. Small,  T. Stauch,  T. Stein,  
 Yu-Chuan Su,  A. J. W. Thom,  A. Tkatchenko,  T. Tsuchimochi,  N. M. Tubman,  
 L. Vogt,  M. L. Vidal,  O. Vydrov,  M. A. Watson,  J. Wenzel,  
 M. de Wergifosse,  T. A. Wesolowski,  A. White,  J. Witte,  A. Yamada,  
 Jun Yang,  K. Yao,  S. Yeganeh,  S. R. Yost,  Zhi-Qiang You,  A. Zech,  
 Igor Ying Zhang,  Xing Zhang,  Yan Zhao,  Ying Zhu,  B. R. Brooks,  
 G. K. L. Chan,  C. J. Cramer,  M. S. Gordon,  W. J. Hehre,  A. Klamt,  
 M. W. Schmidt,  C. D. Sherrill,  D. G. Truhlar,  A. Aspuru-Guzik,  R. Baer,  
 A. T. Bell,  N. A. Besley,  Jeng-Da Chai,  A. E. DePrince, III,  
 R. A. DiStasio Jr.,  A. Dreuw,  B. D. Dunietz,  T. R. Furlani,  
 Chao-Ping Hsu,  Yousung Jung,  Jing Kong,  D. S. Lambrecht,  WanZhen Liang,  
 C. Ochsenfeld,  V. A. Rassolov,  L. V. Slipchenko,  J. E. Subotnik,  
 T. Van Voorhis,  J. M. Herbert,  A. I. Krylov,  P. M. W. Gill,  M. Head-Gordon

 Contributors to earlier versions of Q-Chem not listed above: 
 R. D. Adamson,  B. Austin,  J. Baker,  G. J. O. Beran,  K. Brandhorst,  
 S. T. Brown,  E. F. C. Byrd,  A. K. Chakraborty,  C.-L. Cheng,  
 Siu Hung Chien,  D. M. Chipman,  D. L. Crittenden,  H. Dachsel,  
 R. J. Doerksen,  A. D. Dutoi,  L. Fusti-Molnar,  W. A. Goddard III,  
 A. Golubeva-Zadorozhnaya,  S. R. Gwaltney,  G. Hawkins,  A. Heyden,  
 S. Hirata,  G. Kedziora,  F. J. Keil,  C. Kelley,  Jihan Kim,  R. A. King,  
 R. Z. Khaliullin,  P. P. Korambath,  W. Kurlancheek,  A. M. Lee,  M. S. Lee,  
 S. V. Levchenko,  Ching Yeh Lin,  D. Liotard,  R. C. Lochan,  I. Lotan,  
 P. E. Maslen,  N. Nair,  D. P. O'Neill,  D. Neuhauser,  E. Neuscamman,  
 C. M. Oana,  R. Olson,  B. Peters,  R. Peverati,  P. A. Pieniazek,  
 Y. M. Rhee,  J. Ritchie,  M. A. Rohrdanz,  E. Rosta,  N. J. Russ,  
 H. F. Schaefer III,  N. E. Schultz,  N. Shenvi,  A. C. Simmonett,  A. Sodt,  
 D. Stuck,  K. S. Thanthiriwatte,  V. Vanovschi,  Tao Wang,  A. Warshel,  
 C. F. Williams,  Q. Wu,  X. Xu,  W. Zhang

 Please cite Q-Chem as follows:
 Y. Shao et al., Mol. Phys. 113, 184-215 (2015)
 DOI: 10.1080/00268976.2014.952696

 Q-Chem 5.1.1 for Intel X86 EM64T Linux

 Parts of Q-Chem use Armadillo 8.300.2 (Tropical Shenanigans).
 http://arma.sourceforge.net/

 Q-Chem begins on Wed Jan  9 20:41:08 2019  

Host: 
0

     Scratch files written to /staging/pv/kris658/.QCSCRATCH/CHOSx.save//
 Aug318 |scratch|qcdevops|jenkins|workspace|build_RNUM 6013   
Processing $rem in /usr/usc/qchem/5.1.1/config/preferences.
 MEM_TOTAL  2000 
Input Ideriv = 2
Curr. Ideriv = -1
Max.  Ideriv = 2

Checking the input file for inconsistencies... 	...done.

--------------------------------------------------------------
User input:
--------------------------------------------------------------
$comment
Length-scal DFT calculation for PE - thioketone
$end

$molecule
0  1
S -1.38098 -0.00022 -0.00097
C 0.25794 -0.00002 -0.00047
C 1.06915 1.26908 0.00015
C 1.06941 -1.26894 0.00017
H 1.72543 1.29489 0.88022
H 1.73192 1.29229 -0.87506
H 0.43429 2.15444 -0.00332
H 0.43469 -2.15442 -0.00192
H 1.72689 -1.29395 0.87935
H 1.73099 -1.29258 -0.87594
$end

$rem
JOBTYPE  PES_SCAN
UNRESTRICTED TRUE
SYM_IGNORE  TRUE
GEOM_OPT_MAX_CYCLES 400
SCF_MAX_CYCLES 400
METHOD   B3LYP
BASIS   6-31G**
PDB_PRINT 2
SCF_CONVERGENCE 6
THRESH 14
SCF_PRINT 1
$end

$scan
stre 1 2 1.25 4.5 0.1
$end
--------------------------------------------------------------
 ----------------------------------------------------------------
             Standard Nuclear Orientation (Angstroms)
    I     Atom           X                Y                Z
 ----------------------------------------------------------------
    1      S      -1.3809800000    -0.0002200000    -0.0009700000
    2      C       0.2579400000    -0.0000200000    -0.0004700000
    3      C       1.0691500000     1.2690800000     0.0001500000
    4      C       1.0694100000    -1.2689400000     0.0001700000
    5      H       1.7254300000     1.2948900000     0.8802200000
    6      H       1.7319200000     1.2922900000    -0.8750600000
    7      H       0.4342900000     2.1544400000    -0.0033200000
    8      H       0.4346900000    -2.1544200000    -0.0019200000
    9      H       1.7268900000    -1.2939500000     0.8793500000
   10      H       1.7309900000    -1.2925800000    -0.8759400000
 ----------------------------------------------------------------
 Nuclear Repulsion Energy =   152.2070838989 hartrees
 There are       20 alpha and       20 beta electrons
 Requested basis set is 6-31G(d,p)
 There are 35 shells and 94 basis functions

 Total QAlloc Memory Limit   2000 MB
 Mega-Array Size       188 MB
 MEM_STATIC part       192 MB
A total of 1 constraints
  
            1
    1   1.0100000
    2   1.0100000
    3   2.0100000
    4   1.2500000
    5   4.5000000
    6   0.1000000
    7   0.0000000
    8   0.0000000
    9   0.0000000
   10   0.0000000

                       Distance Matrix (Angstroms)
             S (  1)   C (  2)   C (  3)   C (  4)   H (  5)   H (  6)
   C (  2)  1.638920
   C (  3)  2.759395  1.506213
   C (  4)  2.759359  1.506201  2.538020
   H (  5)  3.479021  2.146144  1.098132  2.788920
   H (  6)  3.482063  2.146530  1.098087  2.786547  1.755294
   H (  7)  2.817405  2.161667  1.089459  3.481798  1.785080  1.785239
   H (  8)  2.817310  2.161639  3.481795  1.089472  3.787073  3.784837
   H (  9)  3.479591  2.146195  2.788322  1.098118  2.588841  3.125159
   H ( 10)  3.481397  2.146401  2.787054  1.098096  3.127160  2.584870
             H (  7)   H (  8)   H (  9)
   H (  8)  4.308860
   H (  9)  3.786993  1.785168
   H ( 10)  3.784817  1.785237  1.755295
 
 A cutoff of  1.0D-14 yielded    618 shell pairs
 There are      4559 function pairs
 
 -------------------------------------------------------
 OpenMP Integral Computing Module                       
 Release: version 1.0, May 2013, Q-Chem Inc. Pittsburgh 
 -------------------------------------------------------
 Integral Job Info:
 Integral job number is                      11
 Integral operator is                         1
 short-range coefficients                     0
 long-range coefficients              100000000
 Omega coefficients                           0
 if combine SR and LR in K                    0
 Integral screening is                        0
 Integral computing path is                   2
 max size of driver memory is            800000
 size of driver memory is                593474
 size of scratch memory is             15267112
 max col of scratch BK array               1296
 max len of scratch array in speh3          155
 max len of scratch index in speh4           18
 max int batch size is                      520
 min int batch size is                       52
 fixed nKL is                                52
 max L of basis functions is                  2
 order of int derivative is                   0
 number of shells is                         35
 number of basis is                          94
 number of cartesian basis is                94
 number of contracted shell pairs           618
 number of primitive shell pairs           2443
 maxK2 (contraction) of shell pair           36
 max number of K2 of shell pair               1
 max number of CS2 of shell pair             48
 max number of PS2 of shell pair            222
 mem total for path MDJ                  514716
 -------------------------------------------------------
 Smallest overlap matrix eigenvalue = 6.93E-03

 Scale SEOQF with 1.000000e-01/1.000000e-01/1.000000e+00

 Standard Electronic Orientation quadrupole field applied
 Nucleus-field energy     =     0.0000000013 hartrees
 Guess from superposition of atomic densities
 Warning:  Energy on first SCF cycle will be non-variational
 SAD guess density has 40.000000 electrons

 -----------------------------------------------------------------------
  General SCF calculation program by
  Eric Jon Sundstrom, Paul Horn, Yuezhi Mao, Dmitri Zuev, Alec White,
  David Stuck, Shaama M.S., Shane Yost, Joonho Lee, David Small,
  Daniel Levine, Susi Lehtola, Hugh Burton, Evgeny Epifanovsky
 -----------------------------------------------------------------------
 Exchange:     0.2000 Hartree-Fock + 0.0800 Slater + 0.7200 B88
 Correlation:  0.1900 VWN1RPA + 0.8100 LYP
 Using SG-1 standard quadrature grid
 using 16 threads for integral computing
 -------------------------------------------------------
 OpenMP Integral computing Module                
 Release: version 1.0, May 2013, Q-Chem Inc. Pittsburgh 
 -------------------------------------------------------
 -------------------------------------------------------
 OpenMP BLAS3 based DFT computing Module                
 Release: version 1.0, May 2013, Q-Chem Inc. Pittsburgh 
 -------------------------------------------------------
 A unrestricted SCF calculation will be
 performed using DIIS
 SCF converges when DIIS error is below 1.0e-06
 Alpha HF Exchange    Energy =  -4.28828252669850
 Beta HF Exchange     Energy =  -4.28828252669850
 DFT Correlation      Energy =  -1.80763191394565
 DFT Exchange         Energy = -33.52593705159316
 One-Electron (alpha) Energy = -503.08546878049015
 One-Electron (beta)  Energy = -503.08546878049015
 Total Coulomb        Energy = 381.25657315182411
 ---------------------------------------
  Cycle       Energy         DIIS error
 ---------------------------------------
    1    -516.6174145280      3.31e-02  
 Alpha HF Exchange    Energy =  -4.29023184334459
 Beta HF Exchange     Energy =  -4.29023184334459
 DFT Correlation      Energy =  -1.83337139189410
 DFT Exchange         Energy = -34.04952075423943
 One-Electron (alpha) Energy = -506.37838556688445
 One-Electron (beta)  Energy = -506.37838556688428
 Total Coulomb        Energy = 388.96566082763411
    2    -516.0473822388      3.88e-03  
 Alpha HF Exchange    Energy =  -4.24139685582586
 Beta HF Exchange     Energy =  -4.24139685582587
 DFT Correlation      Energy =  -1.81062855299925
 DFT Exchange         Energy = -33.64098843452591
 One-Electron (alpha) Energy = -503.26213910363339
 One-Electron (beta)  Energy = -503.26213910363333
 Total Coulomb        Energy = 382.20268551699269
    3    -516.0489194893      3.90e-03  
 Alpha HF Exchange    Energy =  -4.26342227367558
 Beta HF Exchange     Energy =  -4.26342227367558
 DFT Correlation      Energy =  -1.82162353665098
 DFT Exchange         Energy = -33.82449323207705
 One-Electron (alpha) Energy = -504.70370959761743
 One-Electron (beta)  Energy = -504.70370959761732
 Total Coulomb        Energy = 385.25509089865875
    4    -516.1182057125      3.14e-04  
 Alpha HF Exchange    Energy =  -4.26434889211915
 Beta HF Exchange     Energy =  -4.26434889211916
 DFT Correlation      Energy =  -1.82158543283963
 DFT Exchange         Energy = -33.83050496724547
 One-Electron (alpha) Energy = -504.78571321594097
 One-Electron (beta)  Energy = -504.78571321594143
 Total Coulomb        Energy = 385.42682686754415
    5    -516.1183038485      2.98e-04  
 Alpha HF Exchange    Energy =  -4.26432883607816
 Beta HF Exchange     Energy =  -4.26432883607816
 DFT Correlation      Energy =  -1.82180189034822
 DFT Exchange         Energy = -33.83145713140684
 One-Electron (alpha) Energy = -504.79031159681716
 One-Electron (beta)  Energy = -504.79031159681711
 Total Coulomb        Energy = 385.43670348252164
    6    -516.1187525049      7.53e-05  
 Alpha HF Exchange    Energy =  -4.26411158627075
 Beta HF Exchange     Energy =  -4.26411158627075
 DFT Correlation      Energy =  -1.82167978140349
 DFT Exchange         Energy = -33.82945319348433
 One-Electron (alpha) Energy = -504.76468035194409
 One-Electron (beta)  Energy = -504.76468035194387
 Total Coulomb        Energy = 385.38285463453713
    7    -516.1187783167      7.95e-06  
 Alpha HF Exchange    Energy =  -4.26414290653891
 Beta HF Exchange     Energy =  -4.26414290653890
 DFT Correlation      Energy =  -1.82169452251472
 DFT Exchange         Energy = -33.82970745188089
 One-Electron (alpha) Energy = -504.76853298869247
 One-Electron (beta)  Energy = -504.76853298869213
 Total Coulomb        Energy = 385.39089123192866
    8    -516.1187786328      7.35e-07  Convergence criterion met
 ---------------------------------------
 SCF time:   CPU 16.60s  wall 2.00s 
<S^2> =          0.000000000
 Alpha HF Exchange    Energy =  -4.26414290653891
 Beta HF Exchange     Energy =  -4.26414290653890
 DFT Correlation      Energy =  -1.82169452251472
 DFT Exchange         Energy = -33.82970745188089
 One-Electron (alpha) Energy = -504.76853298869247
 One-Electron (beta)  Energy = -504.76853298869213
 Total Coulomb        Energy = 385.39089123192866
 Nuclear repulsion Energy = 152.20708390012877
 SCF   energy in the final basis set =     -516.1187786328
 Total energy in the final basis set =     -516.1187786328
 
 --------------------------------------------------------------
 
                    Orbital Energies (a.u.)
 --------------------------------------------------------------
 
 Alpha MOs
 -- Occupied --
-88.854 -10.266 -10.200 -10.200  -7.917  -5.880  -5.880  -5.871
 -0.833  -0.712  -0.704  -0.528  -0.454  -0.445  -0.442  -0.404
 -0.376  -0.355  -0.283  -0.216
 -- Virtual --
 -0.070   0.081   0.097   0.145   0.150   0.156   0.169   0.174
  0.221   0.233   0.315   0.370   0.432   0.435   0.499   0.501
  0.549   0.581   0.597   0.656   0.696   0.702   0.739   0.771
  0.805   0.812   0.851   0.875   0.889   0.894   0.905   0.940
  0.941   1.067   1.089   1.247   1.295   1.410   1.468   1.675
  1.715   1.820   1.858   1.868   1.907   2.016   2.023   2.032
  2.050   2.082   2.088   2.142   2.303   2.352   2.372   2.501
  2.575   2.584   2.690   2.690   2.803   2.849   2.889   2.927
  3.158   3.204   3.381   3.398   3.420   3.459   3.954   4.168
  4.470   4.528
 
 Beta MOs
 -- Occupied --
-88.854 -10.266 -10.200 -10.200  -7.917  -5.880  -5.880  -5.871
 -0.833  -0.712  -0.704  -0.528  -0.454  -0.445  -0.442  -0.404
 -0.376  -0.355  -0.283  -0.216
 -- Virtual --
 -0.070   0.081   0.097   0.145   0.150   0.156   0.169   0.174
  0.221   0.233   0.315   0.370   0.432   0.435   0.499   0.501
  0.549   0.581   0.597   0.656   0.696   0.702   0.739   0.771
  0.805   0.812   0.851   0.875   0.889   0.894   0.905   0.940
  0.941   1.067   1.089   1.247   1.295   1.410   1.468   1.675
  1.715   1.820   1.858   1.868   1.907   2.016   2.023   2.032
  2.050   2.082   2.088   2.142   2.303   2.352   2.372   2.501
  2.575   2.584   2.690   2.690   2.803   2.849   2.889   2.927
  3.158   3.204   3.381   3.398   3.420   3.459   3.954   4.168
  4.470   4.528
 --------------------------------------------------------------
 
          Ground-State Mulliken Net Atomic Charges

     Atom                 Charge (a.u.)    Spin (a.u.)
  --------------------------------------------------------
      1 S                    -0.133431       0.000000
      2 C                    -0.011157       0.000000
      3 C                    -0.334848      -0.000000
      4 C                    -0.334841      -0.000000
      5 H                     0.130962       0.000000
      6 H                     0.130742       0.000000
      7 H                     0.145435       0.000000
      8 H                     0.145434       0.000000
      9 H                     0.130915       0.000000
     10 H                     0.130789       0.000000
  --------------------------------------------------------
  Sum of atomic charges =     0.000000
  Sum of spin   charges =     0.000000

 -----------------------------------------------------------------
                    Cartesian Multipole Moments
 -----------------------------------------------------------------
    Charge (ESU x 10^10)
                 0.0000
    Dipole Moment (Debye)
         X       3.0657      Y       0.0004      Z       0.0029
       Tot       3.0657
    Quadrupole Moments (Debye-Ang)
        XX     -33.1205     XY      -0.0000     YY     -32.0361
        XZ       0.0008     YZ       0.0006     ZZ     -32.1518
    Octopole Moments (Debye-Ang^2)
       XXX       4.1156    XXY       0.0016    XYY       3.5570
       YYY       0.0069    XXZ       0.0088    XYZ       0.0015
       YYZ       0.0099    XZZ       1.9002    YZZ       0.0020
       ZZZ       0.0471
    Hexadecapole Moments (Debye-Ang^3)
      XXXX    -306.9130   XXXY      -0.0054   XXYY     -90.8179
      XYYY      -0.0095   YYYY    -200.6063   XXXZ      -0.0899
      XXYZ       0.0015   XYYZ      -0.0115   YYYZ      -0.0042
      XXZZ     -56.1246   XYZZ      -0.0021   YYZZ     -43.4101
      XZZZ      -0.0407   YZZZ       0.0049   ZZZZ     -49.3074
 -----------------------------------------------------------------
 Calculating analytic gradient of the SCF energy
 Gradient of SCF Energy
            1           2           3           4           5           6
    1  -0.0002929  -0.0000849   0.0000670   0.0000710   0.0001137   0.0001144
    2  -0.0000035  -0.0000038   0.0000147  -0.0000153  -0.0001452  -0.0001473
    3   0.0000109   0.0000006  -0.0000057   0.0000044  -0.0001413   0.0001505
            7           8           9          10
    1  -0.0001020  -0.0001126   0.0001116   0.0001147
    2  -0.0001493   0.0001457   0.0001511   0.0001528
    3  -0.0000100  -0.0000104  -0.0001462   0.0001471
 Max gradient component =       2.929E-04
 RMS gradient           =       1.149E-04
 Gradient time:  CPU 8.93 s  wall 3.63 s
 Geometry Optimization Parameters
   NAtoms,    NIC,     NZ,  NCons,   NDum,   NFix, NCnnct, MaxDiis
       10      56       0       1       0       0       0       0


** CONSTRAINED OPTIMIZATION IN DELOCALIZED INTERNAL COORDINATES **
   Searching for a Minimum

   Optimization Cycle:   1

                       Coordinates (Angstroms)
     ATOM                X               Y               Z
      1  S        -1.3809800000   -0.0002200000   -0.0009700000
      2  C         0.2579400000   -0.0000200000   -0.0004700000
      3  C         1.0691500000    1.2690800000    0.0001500000
      4  C         1.0694100000   -1.2689400000    0.0001700000
      5  H         1.7254300000    1.2948900000    0.8802200000
      6  H         1.7319200000    1.2922900000   -0.8750600000
      7  H         0.4342900000    2.1544400000   -0.0033200000
      8  H         0.4346900000   -2.1544200000   -0.0019200000
      9  H         1.7268900000   -1.2939500000    0.8793500000
     10  H         1.7309900000   -1.2925800000   -0.8759400000
   Point Group: c1    Number of degrees of freedom:    24


   Energy is   -516.118778633

              Constraints and their Current Values
                                        Value     Constraint
   Distance(Angs):        1   2             1.638920     1.250000

 Attempting to Generate Delocalized Internal Coordinates
**WARNING** Constraint Gradient Reduced for constraint   1

   Using Lagrange Multiplier Algorithm


 25 Hessian modes will be used to form the next step
  Hessian Eigenvalues:
    -0.802452    0.045000    0.045000    0.045000    0.092945    0.092948
     0.095814    0.095817    0.160000    0.160000    0.160000    0.160000
     0.160000    0.160000    0.250000    0.250000    0.317342    0.317354
     0.338896    0.338911    0.338935    0.338945    0.348738    0.348752
     1.246180

 Minimum Search - Taking P-RFO Step
 Searching for Lamda that Maximizes Along the Constraint modes Only
 Value Taken    Lamda =   0.06314819


 ********************************************
 ** ERROR IN DETERMINING Lamda IN CONFormD **
 ********************************************


 ** Scaling Hessian by  2.806586 **


 25 Hessian modes will be used to form the next step
  Hessian Eigenvalues:
    -0.555340    0.126296    0.126296    0.126296    0.260859    0.260867
     0.268910    0.268920    0.449054    0.449054    0.449054    0.449054
     0.449054    0.449054    0.701646    0.701647    0.890647    0.890680
     0.951141    0.951183    0.951251    0.951280    0.978762    0.978803
     1.800699

 Minimum Search - Taking P-RFO Step
 Searching for Lamda that Maximizes Along the Constraint modes Only
 Value Taken    Lamda =   0.10418372
 Searching for Lamda that Minimizes Along All other modes
 Value Taken    Lamda =  -0.01174796
 Step Taken.  Stepsize is  0.263349

                             Maximum     Tolerance    Cnvgd?
         Gradient            0.300000       0.000300      NO
         Displacement        0.308384       0.001200      NO
         Energy change     *********       0.000001      NO


 New Cartesian Coordinates Obtained by Inverse Iteration

 Displacement from previous Coordinates is:  0.251093
 ----------------------------------------------------------------
             Standard Nuclear Orientation (Angstroms)
    I     Atom           X                Y                Z
 ----------------------------------------------------------------
    1      S      -1.2549538572    -0.0001892450    -0.0009525985
    2      C       0.2446124131    -0.0000174470    -0.0004868999
    3      C       1.0552279167     1.2696402638     0.0001457099
    4      C       1.0554908388    -1.2695009796     0.0001636008
    5      H       1.7113247424     1.2960965822     0.8803663434
    6      H       1.7177839500     1.2935426444    -0.8752449444
    7      H       0.4200885453     2.1548407603    -0.0032793479
    8      H       0.4205055580    -2.1548255839    -0.0018843652
    9      H       1.7127848479    -1.2951717162     0.8795005066
   10      H       1.7168650452    -1.2938452790    -0.8761180048
 ----------------------------------------------------------------
 Nuclear Repulsion Energy =   157.3503946317 hartrees
 There are       20 alpha and       20 beta electrons

                       Distance Matrix (Angstroms)
             S (  1)   C (  2)   C (  3)   C (  4)   H (  5)   H (  6)
   C (  2)  1.499566
   C (  3)  2.636173  1.506363
   C (  4)  2.636154  1.506357  2.539141
   H (  5)  3.354980  2.146406  1.098158  2.790549
   H (  6)  3.357871  2.146796  1.098117  2.788219  1.755625
   H (  7)  2.729455  2.161993  1.089492  3.482795  1.784814  1.784985
   H (  8)  2.729400  2.161976  3.482792  1.089500  3.788594  3.786414
   H (  9)  3.355540  2.146470  2.789965  1.098147  2.591269  3.127395
   H ( 10)  3.357256  2.146683  2.788738  1.098125  3.129388  2.587388
             H (  7)   H (  8)   H (  9)
   H (  8)  4.309667
   H (  9)  3.788529  1.784889
   H ( 10)  3.786411  1.784970  1.755624
 
 Applying Cartesian multipole field
    Component          Value
    ---------          -----
     (2,0,0)        1.00000E-11
     (0,2,0)        2.00000E-11
     (0,0,2)       -3.00000E-10
 Nucleus-field energy     =     0.0000000010 hartrees
 Requested basis set is 6-31G(d,p)
 There are 35 shells and 94 basis functions
 A cutoff of  1.0D-14 yielded    620 shell pairs
 There are      4567 function pairs
 Smallest overlap matrix eigenvalue = 6.89E-03
 Guess from superposition of atomic densities
 Warning:  Energy on first SCF cycle will be non-variational
 SAD guess density has 40.000000 electrons

 -----------------------------------------------------------------------
  General SCF calculation program by
  Eric Jon Sundstrom, Paul Horn, Yuezhi Mao, Dmitri Zuev, Alec White,
  David Stuck, Shaama M.S., Shane Yost, Joonho Lee, David Small,
  Daniel Levine, Susi Lehtola, Hugh Burton, Evgeny Epifanovsky
 -----------------------------------------------------------------------
 Exchange:     0.2000 Hartree-Fock + 0.0800 Slater + 0.7200 B88
 Correlation:  0.1900 VWN1RPA + 0.8100 LYP
 Using SG-1 standard quadrature grid
 using 16 threads for integral computing
 -------------------------------------------------------
 OpenMP Integral computing Module                
 Release: version 1.0, May 2013, Q-Chem Inc. Pittsburgh 
 -------------------------------------------------------
 -------------------------------------------------------
 OpenMP BLAS3 based DFT computing Module                
 Release: version 1.0, May 2013, Q-Chem Inc. Pittsburgh 
 -------------------------------------------------------
 A unrestricted SCF calculation will be
 performed using DIIS
 SCF converges when DIIS error is below 1.0e-06
 Alpha HF Exchange    Energy =  -4.30730710153624
 Beta HF Exchange     Energy =  -4.30730710153624
 DFT Correlation      Energy =  -1.81201900024078
 DFT Exchange         Energy = -33.56657615054591
 One-Electron (alpha) Energy = -508.10530042985005
 One-Electron (beta)  Energy = -508.10530042985005
 Total Coulomb        Energy = 386.02880784689268
 ---------------------------------------
  Cycle       Energy         DIIS error
 ---------------------------------------
    1    -516.8246077340      3.61e-02  
 Alpha HF Exchange    Energy =  -4.30184505894338
 Beta HF Exchange     Energy =  -4.30184505894338
 DFT Correlation      Energy =  -1.83978042654204
 DFT Exchange         Energy = -34.13497611101598
 One-Electron (alpha) Energy = -511.70681666901191
 One-Electron (beta)  Energy = -511.70681666901208
 Total Coulomb        Energy = 394.61853821326065
    2    -516.0231471475      4.04e-03  
 Alpha HF Exchange    Energy =  -4.24816136479607
 Beta HF Exchange     Energy =  -4.24816136479607
 DFT Correlation      Energy =  -1.81349149787375
 DFT Exchange         Energy = -33.67939898143631
 One-Electron (alpha) Energy = -508.05027761891131
 One-Electron (beta)  Energy = -508.05027761891154
 Total Coulomb        Energy = 386.73620754886804
    3    -516.0031662652      4.51e-03  
 Alpha HF Exchange    Energy =  -4.27275110417331
 Beta HF Exchange     Energy =  -4.27275110417331
 DFT Correlation      Energy =  -1.82710805301513
 DFT Exchange         Energy = -33.89019308057018
 One-Electron (alpha) Energy = -509.84330735753855
 One-Electron (beta)  Energy = -509.84330735753855
 Total Coulomb        Energy = 390.50382497720580
    4    -516.0951984471      1.09e-03  
 Alpha HF Exchange    Energy =  -4.27371418499535
 Beta HF Exchange     Energy =  -4.27371418499536
 DFT Correlation      Energy =  -1.82684801686456
 DFT Exchange         Energy = -33.89561787372284
 One-Electron (alpha) Energy = -509.88340718350042
 One-Electron (beta)  Energy = -509.88340718350082
 Total Coulomb        Energy = 390.58531973113202
    5    -516.1009942637      1.44e-04  
 Alpha HF Exchange    Energy =  -4.27388246150841
 Beta HF Exchange     Energy =  -4.27388246150841
 DFT Correlation      Energy =  -1.82691656400659
 DFT Exchange         Energy = -33.89723261132886
 One-Electron (alpha) Energy = -509.90808918831323
 One-Electron (beta)  Energy = -509.90808918831323
 Total Coulomb        Energy = 390.63662943372753
    6    -516.1010684086      5.28e-05  
 Alpha HF Exchange    Energy =  -4.27368784772446
 Beta HF Exchange     Energy =  -4.27368784772446
 DFT Correlation      Energy =  -1.82684384305381
 DFT Exchange         Energy = -33.89559774177332
 One-Electron (alpha) Energy = -509.88491788749729
 One-Electron (beta)  Energy = -509.88491788749752
 Total Coulomb        Energy = 390.58817708188030
    7    -516.1010813407      8.96e-06  
 Alpha HF Exchange    Energy =  -4.27372106909784
 Beta HF Exchange     Energy =  -4.27372106909783
 DFT Correlation      Energy =  -1.82685789456368
 DFT Exchange         Energy = -33.89586143002252
 One-Electron (alpha) Energy = -509.88921228916200
 One-Electron (beta)  Energy = -509.88921228916166
 Total Coulomb        Energy = 390.59710965669126
    8    -516.1010817517      6.17e-07  Convergence criterion met
 ---------------------------------------
 SCF time:   CPU 15.94s  wall 1.00s 
<S^2> =         -0.000000000
 Alpha HF Exchange    Energy =  -4.27372106909784
 Beta HF Exchange     Energy =  -4.27372106909783
 DFT Correlation      Energy =  -1.82685789456368
 DFT Exchange         Energy = -33.89586143002252
 One-Electron (alpha) Energy = -509.88921228916200
 One-Electron (beta)  Energy = -509.88921228916166
 Total Coulomb        Energy = 390.59710965669126
 Nuclear repulsion Energy = 157.35039463269914
 SCF   energy in the final basis set =     -516.1010817517
 Total energy in the final basis set =     -516.1010817517
 
 --------------------------------------------------------------
 
                    Orbital Energies (a.u.)
 --------------------------------------------------------------
 
 Alpha MOs
 -- Occupied --
-88.845 -10.247 -10.194 -10.194  -7.914  -5.877  -5.877  -5.868
 -0.854  -0.717  -0.709  -0.518  -0.453  -0.446  -0.439  -0.400
 -0.373  -0.362  -0.302  -0.212
 -- Virtual --
 -0.053   0.083   0.122   0.149   0.152   0.159   0.171   0.172
  0.223   0.229   0.318   0.359   0.443   0.484   0.510   0.511
  0.549   0.595   0.598   0.679   0.683   0.712   0.747   0.761
  0.799   0.806   0.857   0.881   0.885   0.898   0.909   0.945
  0.945   1.097   1.178   1.300   1.320   1.414   1.512   1.676
  1.735   1.824   1.865   1.907   1.949   2.021   2.028   2.055
  2.066   2.089   2.093   2.175   2.308   2.379   2.383   2.504
  2.588   2.620   2.698   2.699   2.808   2.859   2.897   2.949
  3.165   3.211   3.387   3.403   3.425   3.468   3.985   4.190
  4.476   4.553
 
 Beta MOs
 -- Occupied --
-88.845 -10.247 -10.194 -10.194  -7.914  -5.877  -5.877  -5.868
 -0.854  -0.717  -0.709  -0.518  -0.453  -0.446  -0.439  -0.400
 -0.373  -0.362  -0.302  -0.212
 -- Virtual --
 -0.053   0.083   0.122   0.149   0.152   0.159   0.171   0.172
  0.223   0.229   0.318   0.359   0.443   0.484   0.510   0.511
  0.549   0.595   0.598   0.679   0.683   0.712   0.747   0.761
  0.799   0.806   0.857   0.881   0.885   0.898   0.909   0.945
  0.945   1.097   1.178   1.300   1.320   1.414   1.512   1.676
  1.735   1.824   1.865   1.907   1.949   2.021   2.028   2.055
  2.066   2.089   2.093   2.175   2.308   2.379   2.383   2.504
  2.588   2.620   2.698   2.699   2.808   2.859   2.897   2.949
  3.165   3.211   3.387   3.403   3.425   3.468   3.985   4.190
  4.476   4.553
 --------------------------------------------------------------
 
          Ground-State Mulliken Net Atomic Charges

     Atom                 Charge (a.u.)    Spin (a.u.)
  --------------------------------------------------------
      1 S                    -0.126652      -0.000000
      2 C                     0.020088      -0.000000
      3 C                    -0.335968       0.000000
      4 C                    -0.335963       0.000000
      5 H                     0.125579       0.000000
      6 H                     0.125374       0.000000
      7 H                     0.138295       0.000000
      8 H                     0.138294      -0.000000
      9 H                     0.125535      -0.000000
     10 H                     0.125419      -0.000000
  --------------------------------------------------------
  Sum of atomic charges =    -0.000000
  Sum of spin   charges =    -0.000000

 -----------------------------------------------------------------
                    Cartesian Multipole Moments
 -----------------------------------------------------------------
    Charge (ESU x 10^10)
                -0.0000
    Dipole Moment (Debye)
         X       2.5810      Y       0.0003      Z       0.0026
       Tot       2.5810
    Quadrupole Moments (Debye-Ang)
        XX     -33.0334     XY      -0.0001     YY     -32.1390
        XZ       0.0006     YZ       0.0006     ZZ     -31.7334
    Octopole Moments (Debye-Ang^2)
       XXX      -1.3434    XXY       0.0012    XYY       1.2407
       YYY       0.0052    XXZ       0.0084    XYZ       0.0014
       YYZ       0.0094    XZZ      -0.1809    YZZ       0.0015
       ZZZ       0.0445
    Hexadecapole Moments (Debye-Ang^3)
      XXXX    -280.2116   XXXY      -0.0030   XXYY     -86.2176
      XYYY      -0.0066   YYYY    -202.5055   XXXZ      -0.0836
      XXYZ       0.0013   XYYZ      -0.0101   YYYZ      -0.0042
      XXZZ     -51.0787   XYZZ      -0.0011   YYZZ     -43.4710
      XZZZ      -0.0352   YZZZ       0.0046   ZZZZ     -48.2268
 -----------------------------------------------------------------
 Calculating analytic gradient of the SCF energy
 Gradient of SCF Energy
            1           2           3           4           5           6
    1   0.1518624  -0.1330498  -0.0092701  -0.0092680  -0.0001472  -0.0001465
    2   0.0000150  -0.0000170  -0.0015629   0.0015588  -0.0007479  -0.0007583
    3   0.0000616  -0.0000414  -0.0000162  -0.0000060   0.0001411  -0.0001302
            7           8           9          10
    1   0.0001604   0.0001534  -0.0001485  -0.0001461
    2   0.0000948  -0.0000966   0.0007538   0.0007603
    3  -0.0000054  -0.0000069   0.0001366  -0.0001333
 Max gradient component =       1.519E-01
 RMS gradient           =       3.694E-02
 Gradient time:  CPU 8.20 s  wall 0.60 s
 Geometry Optimization Parameters
   NAtoms,    NIC,     NZ,  NCons,   NDum,   NFix, NCnnct, MaxDiis
       10      56       0       1       0       0       0       0

 Cartesian Hessian Update
 Hessian Updated using BFGS Update


** CONSTRAINED OPTIMIZATION IN DELOCALIZED INTERNAL COORDINATES **
   Searching for a Minimum

   Optimization Cycle:   2

                       Coordinates (Angstroms)
     ATOM                X               Y               Z
      1  S        -1.2549538572   -0.0001892450   -0.0009525985
      2  C         0.2446124131   -0.0000174470   -0.0004868999
      3  C         1.0552279167    1.2696402638    0.0001457099
      4  C         1.0554908388   -1.2695009796    0.0001636008
      5  H         1.7113247424    1.2960965822    0.8803663434
      6  H         1.7177839500    1.2935426444   -0.8752449444
      7  H         0.4200885453    2.1548407603   -0.0032793479
      8  H         0.4205055580   -2.1548255839   -0.0018843652
      9  H         1.7127848479   -1.2951717162    0.8795005066
     10  H         1.7168650452   -1.2938452790   -0.8761180048
   Point Group: c1    Number of degrees of freedom:    24


   Energy is   -516.101081752

              Constraints and their Current Values
                                        Value     Constraint
   Distance(Angs):        1   2             1.499566     1.250000
 Hessian Updated using BFGS Update
**WARNING** Constraint Gradient Reduced for constraint   1

   Using Lagrange Multiplier Algorithm


 21 Hessian modes will be used to form the next step
  Hessian Eigenvalues:
    -0.753044    0.126296    0.126296    0.126296    0.260859    0.260867
     0.268912    0.268923    0.449051    0.449185    0.701646    0.704517
     0.890663    0.891293    0.951141    0.951183    0.951251    0.951280
     0.978762    0.978803    1.334628

 Minimum Search - Taking P-RFO Step
 Searching for Lamda that Maximizes Along the Constraint modes Only
 Value Taken    Lamda =   0.02695996
 Searching for Lamda that Minimizes Along All other modes
 Value Taken    Lamda =  -0.06801002
 Step Taken.  Stepsize is  0.290285

                             Maximum     Tolerance    Cnvgd?
         Gradient            0.300000       0.000300      NO
         Displacement        0.286943       0.001200      NO
         Energy change      0.017697       0.000001      NO


 New Cartesian Coordinates Obtained by Inverse Iteration

 Displacement from previous Coordinates is:  0.239236
 ----------------------------------------------------------------
             Standard Nuclear Orientation (Angstroms)
    I     Atom           X                Y                Z
 ----------------------------------------------------------------
    1      S      -1.1389009875    -0.0001576733    -0.0009579362
    2      C       0.2088217331    -0.0000160924    -0.0005164997
    3      C       1.0423527828     1.2652086365     0.0001454044
    4      C       1.0426176575    -1.2650682621     0.0001596997
    5      H       1.6993899216     1.2874243889     0.8797719722
    6      H       1.7057759918     1.2848920821    -0.8746951476
    7      H       0.4167601698     2.1572033135    -0.0032205202
    8      H       0.4171986127    -2.1571907920    -0.0018297424
    9      H       1.7008392149    -1.2865083373     0.8789122372
   10      H       1.7048749032    -1.2852172640    -0.8755594673
 ----------------------------------------------------------------
 Nuclear Repulsion Energy =   163.3125451045 hartrees
 There are       20 alpha and       20 beta electrons

                       Distance Matrix (Angstroms)
             S (  1)   C (  2)   C (  3)   C (  4)   H (  5)   H (  6)
   C (  2)  1.347723
   C (  3)  2.521710  1.515113
   C (  4)  2.521710  1.515115  2.530277
   H (  5)  3.238742  2.157360  1.098150  2.778540
   H (  6)  3.241444  2.157788  1.098118  2.776229  1.754481
   H (  7)  2.659754  2.167220  1.089510  3.479030  1.783628  1.783804
   H (  8)  2.659744  2.167216  3.479029  1.089512  3.779763  3.777600
   H (  9)  3.239289  2.157446  2.777966  1.098144  2.573933  3.112437
   H ( 10)  3.240890  2.157688  2.776773  1.098123  3.114435  2.570110
             H (  7)   H (  8)   H (  9)
   H (  8)  4.314394
   H (  9)  3.779705  1.783684
   H ( 10)  3.777628  1.783775  1.754477
 
 Applying Cartesian multipole field
    Component          Value
    ---------          -----
     (2,0,0)        1.00000E-11
     (0,2,0)        2.00000E-11
     (0,0,2)       -3.00000E-10
 Nucleus-field energy     =     0.0000000009 hartrees
 Requested basis set is 6-31G(d,p)
 There are 35 shells and 94 basis functions
 A cutoff of  1.0D-14 yielded    620 shell pairs
 There are      4567 function pairs
 Smallest overlap matrix eigenvalue = 6.64E-03
 Guess from superposition of atomic densities
 Warning:  Energy on first SCF cycle will be non-variational
 SAD guess density has 40.000000 electrons

 -----------------------------------------------------------------------
  General SCF calculation program by
  Eric Jon Sundstrom, Paul Horn, Yuezhi Mao, Dmitri Zuev, Alec White,
  David Stuck, Shaama M.S., Shane Yost, Joonho Lee, David Small,
  Daniel Levine, Susi Lehtola, Hugh Burton, Evgeny Epifanovsky
 -----------------------------------------------------------------------
 Exchange:     0.2000 Hartree-Fock + 0.0800 Slater + 0.7200 B88
 Correlation:  0.1900 VWN1RPA + 0.8100 LYP
 Using SG-1 standard quadrature grid
 using 16 threads for integral computing
 -------------------------------------------------------
 OpenMP Integral computing Module                
 Release: version 1.0, May 2013, Q-Chem Inc. Pittsburgh 
 -------------------------------------------------------
 -------------------------------------------------------
 OpenMP BLAS3 based DFT computing Module                
 Release: version 1.0, May 2013, Q-Chem Inc. Pittsburgh 
 -------------------------------------------------------
 A unrestricted SCF calculation will be
 performed using DIIS
 SCF converges when DIIS error is below 1.0e-06
 Alpha HF Exchange    Energy =  -4.33114417265348
 Beta HF Exchange     Energy =  -4.33114417265348
 DFT Correlation      Energy =  -1.81701510049587
 DFT Exchange         Energy = -33.61955497995443
 One-Electron (alpha) Energy = -513.82736683632811
 One-Electron (beta)  Energy = -513.82736683632811
 Total Coulomb        Energy = 391.34937478408335
 ---------------------------------------
  Cycle       Energy         DIIS error
 ---------------------------------------
    1    -517.0916722090      4.08e-02  
 Alpha HF Exchange    Energy =  -4.31836018078063
 Beta HF Exchange     Energy =  -4.31836018078063
 DFT Correlation      Energy =  -1.84767857493481
 DFT Exchange         Energy = -34.26063502080085
 One-Electron (alpha) Energy = -517.92306691129045
 One-Electron (beta)  Energy = -517.92306691129033
 Total Coulomb        Energy = 401.36250017280736
    2    -515.9161225017      4.60e-03  
 Alpha HF Exchange    Energy =  -4.25522422352959
 Beta HF Exchange     Energy =  -4.25522422352959
 DFT Correlation      Energy =  -1.81657666573299
 DFT Exchange         Energy = -33.72542944583047
 One-Electron (alpha) Energy = -513.32561618613954
 One-Electron (beta)  Energy = -513.32561618613931
 Total Coulomb        Energy = 391.53824687987208
    3    -515.8528949457      5.81e-03  
 Alpha HF Exchange    Energy =  -4.28440113680509
 Beta HF Exchange     Energy =  -4.28440113680509
 DFT Correlation      Energy =  -1.83279450257601
 DFT Exchange         Energy = -33.97464172376127
 One-Electron (alpha) Energy = -515.67829799572598
 One-Electron (beta)  Energy = -515.67829799572587
 Total Coulomb        Energy = 396.40877856528016
    4    -516.0115108208      1.06e-03  
 Alpha HF Exchange    Energy =  -4.28642698746502
 Beta HF Exchange     Energy =  -4.28642698746502
 DFT Correlation      Energy =  -1.83310727198533
 DFT Exchange         Energy = -33.98964728868998
 One-Electron (alpha) Energy = -515.77242051945518
 One-Electron (beta)  Energy = -515.77242051945518
 Total Coulomb        Energy = 396.61127545278543
    5    -516.0166290164      1.62e-04  
 Alpha HF Exchange    Energy =  -4.28619196567051
 Beta HF Exchange     Energy =  -4.28619196567051
 DFT Correlation      Energy =  -1.83296097489578
 DFT Exchange         Energy = -33.98776336780709
 One-Electron (alpha) Energy = -515.76436739835424
 One-Electron (beta)  Energy = -515.76436739835412
 Total Coulomb        Energy = 396.59257243506818
    6    -516.0167255304      5.42e-05  
 Alpha HF Exchange    Energy =  -4.28605432503799
 Beta HF Exchange     Energy =  -4.28605432503799
 DFT Correlation      Energy =  -1.83292405674559
 DFT Exchange         Energy = -33.98663679420940
 One-Electron (alpha) Energy = -515.74605757721440
 One-Electron (beta)  Energy = -515.74605757721417
 Total Coulomb        Energy = 396.55450177307023
    7    -516.0167377771      1.18e-05  
 Alpha HF Exchange    Energy =  -4.28609534265740
 Beta HF Exchange     Energy =  -4.28609534265739
 DFT Correlation      Energy =  -1.83294020152605
 DFT Exchange         Energy = -33.98696125488684
 One-Electron (alpha) Energy = -515.75150178238800
 One-Electron (beta)  Energy = -515.75150178238789
 Total Coulomb        Energy = 396.56581211953119
    8    -516.0167384816      8.30e-07  Convergence criterion met
 ---------------------------------------
 SCF time:   CPU 15.97s  wall 1.00s 
<S^2> =          0.000000000
 Alpha HF Exchange    Energy =  -4.28609534265740
 Beta HF Exchange     Energy =  -4.28609534265739
 DFT Correlation      Energy =  -1.83294020152605
 DFT Exchange         Energy = -33.98696125488684
 One-Electron (alpha) Energy = -515.75150178238800
 One-Electron (beta)  Energy = -515.75150178238789
 Total Coulomb        Energy = 396.56581211953119
 Nuclear repulsion Energy = 163.31254510532716
 SCF   energy in the final basis set =     -516.0167384816
 Total energy in the final basis set =     -516.0167384816
 
 --------------------------------------------------------------
 
                    Orbital Energies (a.u.)
 --------------------------------------------------------------
 
 Alpha MOs
 -- Occupied --
-88.832 -10.226 -10.186 -10.186  -7.913  -5.875  -5.874  -5.866
 -0.887  -0.723  -0.704  -0.507  -0.454  -0.454  -0.432  -0.394
 -0.370  -0.369  -0.327  -0.204
 -- Virtual --
 -0.034   0.085   0.140   0.153   0.154   0.163   0.166   0.176
  0.222   0.222   0.319   0.348   0.457   0.503   0.522   0.546
  0.549   0.606   0.622   0.662   0.696   0.724   0.762   0.774
  0.791   0.795   0.864   0.887   0.889   0.900   0.915   0.950
  0.953   1.126   1.219   1.312   1.425   1.532   1.549   1.664
  1.748   1.826   1.873   1.949   2.016   2.026   2.034   2.061
  2.092   2.098   2.101   2.201   2.324   2.394   2.418   2.499
  2.610   2.667   2.705   2.721   2.811   2.872   2.906   2.974
  3.168   3.221   3.393   3.409   3.432   3.473   3.989   4.227
  4.483   4.592
 
 Beta MOs
 -- Occupied --
-88.832 -10.226 -10.186 -10.186  -7.913  -5.875  -5.874  -5.866
 -0.887  -0.723  -0.704  -0.507  -0.454  -0.454  -0.432  -0.394
 -0.370  -0.369  -0.327  -0.204
 -- Virtual --
 -0.034   0.085   0.140   0.153   0.154   0.163   0.166   0.176
  0.222   0.222   0.319   0.348   0.457   0.503   0.522   0.546
  0.549   0.606   0.622   0.662   0.696   0.724   0.762   0.774
  0.791   0.795   0.864   0.887   0.889   0.900   0.915   0.950
  0.953   1.126   1.219   1.312   1.425   1.532   1.549   1.664
  1.748   1.826   1.873   1.949   2.016   2.026   2.034   2.061
  2.092   2.098   2.101   2.201   2.324   2.394   2.418   2.499
  2.610   2.667   2.705   2.721   2.811   2.872   2.906   2.974
  3.168   3.221   3.393   3.409   3.432   3.473   3.989   4.227
  4.483   4.592
 --------------------------------------------------------------
 
          Ground-State Mulliken Net Atomic Charges

     Atom                 Charge (a.u.)    Spin (a.u.)
  --------------------------------------------------------
      1 S                    -0.108550      -0.000000
      2 C                     0.061201      -0.000000
      3 C                    -0.344387       0.000000
      4 C                    -0.344385       0.000000
      5 H                     0.119845       0.000000
      6 H                     0.119668      -0.000000
      7 H                     0.128547       0.000000
      8 H                     0.128547      -0.000000
      9 H                     0.119805       0.000000
     10 H                     0.119708      -0.000000
  --------------------------------------------------------
  Sum of atomic charges =     0.000000
  Sum of spin   charges =    -0.000000

 -----------------------------------------------------------------
                    Cartesian Multipole Moments
 -----------------------------------------------------------------
    Charge (ESU x 10^10)
                -0.0000
    Dipole Moment (Debye)
         X       2.0613      Y       0.0002      Z       0.0023
       Tot       2.0613
    Quadrupole Moments (Debye-Ang)
        XX     -32.9980     XY      -0.0001     YY     -32.3081
        XZ       0.0003     YZ       0.0005     ZZ     -31.2180
    Octopole Moments (Debye-Ang^2)
       XXX      -6.0490    XXY       0.0008    XYY      -0.8979
       YYY       0.0035    XXZ       0.0084    XYZ       0.0013
       YYZ       0.0093    XZZ      -2.0962    YZZ       0.0010
       ZZZ       0.0422
    Hexadecapole Moments (Debye-Ang^3)
      XXXX    -258.1406   XXXY      -0.0010   XXYY     -82.4274
      XYYY      -0.0042   YYYY    -203.9769   XXXZ      -0.0792
      XXYZ       0.0012   XYYZ      -0.0099   YYYZ      -0.0041
      XXZZ     -46.8712   XYZZ      -0.0003   YYZZ     -43.3950
      XZZZ      -0.0319   YZZZ       0.0043   ZZZZ     -46.8760
 -----------------------------------------------------------------
 Calculating analytic gradient of the SCF energy
 Gradient of SCF Energy
            1           2           3           4           5           6
    1   0.4836235  -0.4502591  -0.0174465  -0.0174458   0.0000394   0.0000410
    2   0.0000506  -0.0000471  -0.0033443   0.0033371  -0.0009303  -0.0009455
    3   0.0001771  -0.0001516  -0.0000236  -0.0000148   0.0002180  -0.0002067
            7           8           9          10
    1   0.0006845   0.0006823   0.0000393   0.0000415
    2  -0.0000418   0.0000420   0.0009348   0.0009445
    3  -0.0000008  -0.0000034   0.0002146  -0.0002089
 Max gradient component =       4.836E-01
 RMS gradient           =       1.207E-01
 Gradient time:  CPU 8.18 s  wall 0.58 s
 Geometry Optimization Parameters
   NAtoms,    NIC,     NZ,  NCons,   NDum,   NFix, NCnnct, MaxDiis
       10      56       0       1       0       0       0       0

 Cartesian Hessian Update
 Hessian Updated using BFGS Update


** CONSTRAINED OPTIMIZATION IN DELOCALIZED INTERNAL COORDINATES **
   Searching for a Minimum

   Optimization Cycle:   3

                       Coordinates (Angstroms)
     ATOM                X               Y               Z
      1  S        -1.1389009875   -0.0001576733   -0.0009579362
      2  C         0.2088217331   -0.0000160924   -0.0005164997
      3  C         1.0423527828    1.2652086365    0.0001454044
      4  C         1.0426176575   -1.2650682621    0.0001596997
      5  H         1.6993899216    1.2874243889    0.8797719722
      6  H         1.7057759918    1.2848920821   -0.8746951476
      7  H         0.4167601698    2.1572033135   -0.0032205202
      8  H         0.4171986127   -2.1571907920   -0.0018297424
      9  H         1.7008392149   -1.2865083373    0.8789122372
     10  H         1.7048749032   -1.2852172640   -0.8755594673
   Point Group: c1    Number of degrees of freedom:    24


   Energy is   -516.016738482

              Constraints and their Current Values
                                        Value     Constraint
   Distance(Angs):        1   2             1.347723     1.250000
 Hessian Updated using BFGS Update

   Using Lagrange Multiplier Algorithm


 25 Hessian modes will be used to form the next step
  Hessian Eigenvalues:
    -0.575735    0.126296    0.126296    0.126296    0.260859    0.260867
     0.268903    0.268917    0.449018    0.449054    0.449054    0.449054
     0.449054    0.449065    0.697182    0.701646    0.885064    0.890664
     0.951141    0.951183    0.951251    0.951280    0.978762    0.978803
     1.771177

 Minimum Search - Taking P-RFO Step
 Searching for Lamda that Maximizes Along the Constraint modes Only
 Value Taken    Lamda =   0.08539619
 Searching for Lamda that Minimizes Along All other modes
 Value Taken    Lamda =  -0.00343037
 Step Taken.  Stepsize is  0.175520

                             Maximum     Tolerance    Cnvgd?
         Gradient            0.184669       0.000300      NO
         Displacement        0.319174       0.001200      NO
         Energy change      0.084343       0.000001      NO


 New Cartesian Coordinates Obtained by Inverse Iteration

 Displacement from previous Coordinates is:  0.138105
 ----------------------------------------------------------------
             Standard Nuclear Orientation (Angstroms)
    I     Atom           X                Y                Z
 ----------------------------------------------------------------
    1      S      -1.0992787940    -0.0001462267    -0.0010131891
    2      C       0.1647561406    -0.0000178071    -0.0005535041
    3      C       1.0385062618     1.2563313014     0.0001522104
    4      C       1.0387699412    -1.2561877336     0.0001631458
    5      H       1.6962407235     1.2695740873     0.8792400055
    6      H       1.7025297226     1.2670464588    -0.8742005397
    7      H       0.4292212032     2.1599893369    -0.0031487757
    8      H       0.4296713800    -2.1599740196    -0.0017603272
    9      H       1.6976677138    -1.2686526829     0.8783878998
   10      H       1.7016457073    -1.2673927145    -0.8750569257
 ----------------------------------------------------------------
 Nuclear Repulsion Energy =   166.4710379866 hartrees
 There are       20 alpha and       20 beta electrons

                       Distance Matrix (Angstroms)
             S (  1)   C (  2)   C (  3)   C (  4)   H (  5)   H (  6)
   C (  2)  1.264035
   C (  3)  2.479690  1.530311
   C (  4)  2.479696  1.530315  2.512519
   H (  5)  3.194051  2.175166  1.097992  2.754000
   H (  6)  3.196618  2.175651  1.097968  2.751690  1.753454
   H (  7)  2.646224  2.176139  1.089879  3.470133  1.782355  1.782524
   H (  8)  2.646232  2.176142  3.470133  1.089878  3.760606  3.758429
   H (  9)  3.194584  2.175268  2.753423  1.097989  2.538227  3.082428
   H ( 10)  3.196098  2.175552  2.752259  1.097971  3.084443  2.534439
             H (  7)   H (  8)   H (  9)
   H (  8)  4.319964
   H (  9)  3.760538  1.782394
   H ( 10)  3.758488  1.782489  1.753450
 
 Applying Cartesian multipole field
    Component          Value
    ---------          -----
     (2,0,0)        1.00000E-11
     (0,2,0)        2.00000E-11
     (0,0,2)       -3.00000E-10
 Nucleus-field energy     =     0.0000000008 hartrees
 Requested basis set is 6-31G(d,p)
 There are 35 shells and 94 basis functions
 A cutoff of  1.0D-14 yielded    620 shell pairs
 There are      4567 function pairs
 Smallest overlap matrix eigenvalue = 5.95E-03
 Guess from superposition of atomic densities
 Warning:  Energy on first SCF cycle will be non-variational
 SAD guess density has 40.000000 electrons

 -----------------------------------------------------------------------
  General SCF calculation program by
  Eric Jon Sundstrom, Paul Horn, Yuezhi Mao, Dmitri Zuev, Alec White,
  David Stuck, Shaama M.S., Shane Yost, Joonho Lee, David Small,
  Daniel Levine, Susi Lehtola, Hugh Burton, Evgeny Epifanovsky
 -----------------------------------------------------------------------
 Exchange:     0.2000 Hartree-Fock + 0.0800 Slater + 0.7200 B88
 Correlation:  0.1900 VWN1RPA + 0.8100 LYP
 Using SG-1 standard quadrature grid
 using 16 threads for integral computing
 -------------------------------------------------------
 OpenMP Integral computing Module                
 Release: version 1.0, May 2013, Q-Chem Inc. Pittsburgh 
 -------------------------------------------------------
 -------------------------------------------------------
 OpenMP BLAS3 based DFT computing Module                
 Release: version 1.0, May 2013, Q-Chem Inc. Pittsburgh 
 -------------------------------------------------------
 A unrestricted SCF calculation will be
 performed using DIIS
 SCF converges when DIIS error is below 1.0e-06
 Alpha HF Exchange    Energy =  -4.34407635024475
 Beta HF Exchange     Energy =  -4.34407635024475
 DFT Correlation      Energy =  -1.81951410144307
 DFT Exchange         Energy = -33.65007931912017
 One-Electron (alpha) Energy = -516.77808084224091
 One-Electron (beta)  Energy = -516.77808084224091
 Total Coulomb        Energy = 394.00598252534292
 ---------------------------------------
  Cycle       Energy         DIIS error
 ---------------------------------------
    1    -517.2368872928      4.41e-02  
 Alpha HF Exchange    Energy =  -4.32897239527868
 Beta HF Exchange     Energy =  -4.32897239527868
 DFT Correlation      Energy =  -1.85211221938671
 DFT Exchange         Energy = -34.34436432532226
 One-Electron (alpha) Energy = -521.21416084354485
 One-Electron (beta)  Energy = -521.21416084354507
 Total Coulomb        Energy = 405.01494897163388
    2    -515.7967560634      5.13e-03  
 Alpha HF Exchange    Energy =  -4.25844965547336
 Beta HF Exchange     Energy =  -4.25844965547336
 DFT Correlation      Energy =  -1.81780888652734
 DFT Exchange         Energy = -33.74890266971787
 One-Electron (alpha) Energy = -515.94087737350640
 One-Electron (beta)  Energy = -515.94087737350628
 Total Coulomb        Energy = 393.79298911084527
    3    -515.7013385160      6.73e-03  
 Alpha HF Exchange    Energy =  -4.29162820101805
 Beta HF Exchange     Energy =  -4.29162820101805
 DFT Correlation      Energy =  -1.83590093409551
 DFT Exchange         Energy = -34.03041377802234
 One-Electron (alpha) Energy = -518.71845547283658
 One-Electron (beta)  Energy = -518.71845547283681
 Total Coulomb        Energy = 399.49989842882633
    4    -515.9155456436      9.56e-04  
 Alpha HF Exchange    Energy =  -4.29410631341735
 Beta HF Exchange     Energy =  -4.29410631341735
 DFT Correlation      Energy =  -1.83645140810472
 DFT Exchange         Energy = -34.04948434754675
 One-Electron (alpha) Energy = -518.83584182533593
 One-Electron (beta)  Energy = -518.83584182533593
 Total Coulomb        Energy = 399.75531743390798
    5    -515.9194766119      2.02e-04  
 Alpha HF Exchange    Energy =  -4.29351025847431
 Beta HF Exchange     Energy =  -4.29351025847432
 DFT Correlation      Energy =  -1.83614881370105
 DFT Exchange         Energy = -34.04460184677696
 One-Electron (alpha) Energy = -518.80209573536672
 One-Electron (beta)  Energy = -518.80209573536717
 Total Coulomb        Energy = 399.68129165080097
    6    -515.9196330100      6.06e-05  
 Alpha HF Exchange    Energy =  -4.29341921146194
 Beta HF Exchange     Energy =  -4.29341921146194
 DFT Correlation      Energy =  -1.83613952681946
 DFT Exchange         Energy = -34.04387566896436
 One-Electron (alpha) Energy = -518.78727747744722
 One-Electron (beta)  Energy = -518.78727747744676
 Total Coulomb        Energy = 399.65072303611385
    7    -515.9196475501      1.38e-05  
 Alpha HF Exchange    Energy =  -4.29346635928874
 Beta HF Exchange     Energy =  -4.29346635928875
 DFT Correlation      Energy =  -1.83615708472894
 DFT Exchange         Energy = -34.04424664433978
 One-Electron (alpha) Energy = -518.79354819847708
 One-Electron (beta)  Energy = -518.79354819847765
 Total Coulomb        Energy = 399.66374634377701
    8    -515.9196485135      1.14e-06  
 Alpha HF Exchange    Energy =  -4.29346863270567
 Beta HF Exchange     Energy =  -4.29346863270566
 DFT Correlation      Energy =  -1.83615838060110
 DFT Exchange         Energy = -34.04426223552063
 One-Electron (alpha) Energy = -518.79354957267128
 One-Electron (beta)  Energy = -518.79354957267128
 Total Coulomb        Energy = 399.66377051815664
    9    -515.9196485214      2.85e-07  Convergence criterion met
 ---------------------------------------
 SCF time:   CPU 17.94s  wall 1.00s 
<S^2> =          0.000000000
 Alpha HF Exchange    Energy =  -4.29346863270567
 Beta HF Exchange     Energy =  -4.29346863270566
 DFT Correlation      Energy =  -1.83615838060110
 DFT Exchange         Energy = -34.04426223552063
 One-Electron (alpha) Energy = -518.79354957267128
 One-Electron (beta)  Energy = -518.79354957267128
 Total Coulomb        Energy = 399.66377051815664
 Nuclear repulsion Energy = 166.47103798736862
 SCF   energy in the final basis set =     -515.9196485214
 Total energy in the final basis set =     -515.9196485214
 
 --------------------------------------------------------------
 
                    Orbital Energies (a.u.)
 --------------------------------------------------------------
 
 Alpha MOs
 -- Occupied --
-88.824 -10.217 -10.182 -10.182  -7.915  -5.878  -5.875  -5.866
 -0.906  -0.724  -0.699  -0.501  -0.459  -0.457  -0.428  -0.389
 -0.373  -0.366  -0.343  -0.199
 -- Virtual --
 -0.024   0.085   0.147   0.149   0.155   0.165   0.165   0.180
  0.218   0.218   0.317   0.342   0.464   0.510   0.527   0.544
  0.555   0.608   0.626   0.681   0.698   0.729   0.771   0.784
  0.788   0.798   0.869   0.891   0.899   0.903   0.919   0.954
  0.961   1.134   1.228   1.324   1.441   1.559   1.654   1.676
  1.748   1.824   1.880   1.965   2.030   2.038   2.060   2.064
  2.101   2.105   2.107   2.215   2.343   2.409   2.434   2.489
  2.620   2.700   2.714   2.744   2.810   2.880   2.908   2.992
  3.167   3.229   3.396   3.411   3.437   3.472   3.989   4.244
  4.489   4.615
 
 Beta MOs
 -- Occupied --
-88.824 -10.217 -10.182 -10.182  -7.915  -5.878  -5.875  -5.866
 -0.906  -0.724  -0.699  -0.501  -0.459  -0.457  -0.428  -0.389
 -0.373  -0.366  -0.343  -0.199
 -- Virtual --
 -0.024   0.085   0.147   0.149   0.155   0.165   0.165   0.180
  0.218   0.218   0.317   0.342   0.464   0.510   0.527   0.544
  0.555   0.608   0.626   0.681   0.698   0.729   0.771   0.784
  0.788   0.798   0.869   0.891   0.899   0.903   0.919   0.954
  0.961   1.134   1.228   1.324   1.441   1.559   1.654   1.676
  1.748   1.824   1.880   1.965   2.030   2.038   2.060   2.064
  2.101   2.105   2.107   2.215   2.343   2.409   2.434   2.489
  2.620   2.700   2.714   2.744   2.810   2.880   2.908   2.992
  3.167   3.229   3.396   3.411   3.437   3.472   3.989   4.244
  4.489   4.615
 --------------------------------------------------------------
 
          Ground-State Mulliken Net Atomic Charges

     Atom                 Charge (a.u.)    Spin (a.u.)
  --------------------------------------------------------
      1 S                    -0.070467      -0.000000
      2 C                     0.067709       0.000000
      3 C                    -0.353422      -0.000000
      4 C                    -0.353421       0.000000
      5 H                     0.117078       0.000000
      6 H                     0.116928       0.000000
      7 H                     0.120795       0.000000
      8 H                     0.120795       0.000000
      9 H                     0.117043      -0.000000
     10 H                     0.116963      -0.000000
  --------------------------------------------------------
  Sum of atomic charges =     0.000000
  Sum of spin   charges =     0.000000

 -----------------------------------------------------------------
                    Cartesian Multipole Moments
 -----------------------------------------------------------------
    Charge (ESU x 10^10)
                 0.0000
    Dipole Moment (Debye)
         X       1.7549      Y       0.0002      Z       0.0021
       Tot       1.7549
    Quadrupole Moments (Debye-Ang)
        XX     -32.9675     XY      -0.0001     YY     -32.4887
        XZ      -0.0001     YZ       0.0005     ZZ     -30.9147
    Octopole Moments (Debye-Ang^2)
       XXX      -7.4442    XXY       0.0007    XYY      -1.7216
       YYY       0.0028    XXZ       0.0090    XYZ       0.0012
       YYZ       0.0100    XZZ      -2.8046    YZZ       0.0008
       ZZZ       0.0425
    Hexadecapole Moments (Debye-Ang^3)
      XXXX    -251.2874   XXXY      -0.0004   XXYY     -81.0992
      XYYY      -0.0036   YYYY    -203.9817   XXXZ      -0.0809
      XXYZ       0.0011   XYYZ      -0.0116   YYYZ      -0.0040
      XXZZ     -45.4353   XYZZ      -0.0000   YYZZ     -43.1477
      XZZZ      -0.0337   YZZZ       0.0040   ZZZZ     -46.0690
 -----------------------------------------------------------------
 Calculating analytic gradient of the SCF energy
 Gradient of SCF Energy
            1           2           3           4           5           6
    1   0.7904151  -0.7604667  -0.0171748  -0.0171756   0.0005897   0.0005953
    2   0.0000807  -0.0000765  -0.0041882   0.0041820  -0.0005161  -0.0005292
    3   0.0003066  -0.0002817  -0.0000229  -0.0000168   0.0001200  -0.0001102
            7           8           9          10
    1   0.0010154   0.0010157   0.0005906   0.0005953
    2  -0.0004761   0.0004771   0.0005186   0.0005277
    3   0.0000005  -0.0000019   0.0001180  -0.0001116
 Max gradient component =       7.904E-01
 RMS gradient           =       2.003E-01
 Gradient time:  CPU 8.39 s  wall 0.60 s
 Geometry Optimization Parameters
   NAtoms,    NIC,     NZ,  NCons,   NDum,   NFix, NCnnct, MaxDiis
       10      56       0       1       0       0       0       0

 Cartesian Hessian Update
 Hessian Updated using BFGS Update


** CONSTRAINED OPTIMIZATION IN DELOCALIZED INTERNAL COORDINATES **
   Searching for a Minimum

   Optimization Cycle:   4

                       Coordinates (Angstroms)
     ATOM                X               Y               Z
      1  S        -1.0992787940   -0.0001462267   -0.0010131891
      2  C         0.1647561406   -0.0000178071   -0.0005535041
      3  C         1.0385062618    1.2563313014    0.0001522104
      4  C         1.0387699412   -1.2561877336    0.0001631458
      5  H         1.6962407235    1.2695740873    0.8792400055
      6  H         1.7025297226    1.2670464588   -0.8742005397
      7  H         0.4292212032    2.1599893369   -0.0031487757
      8  H         0.4296713800   -2.1599740196   -0.0017603272
      9  H         1.6976677138   -1.2686526829    0.8783878998
     10  H         1.7016457073   -1.2673927145   -0.8750569257
   Point Group: c1    Number of degrees of freedom:    24


   Energy is   -515.919648521

              Constraints and their Current Values
                                        Value     Constraint
   Distance(Angs):        1   2             1.264035     1.250000
 Hessian Updated using BFGS Update

   Using Lagrange Multiplier Algorithm


 25 Hessian modes will be used to form the next step
  Hessian Eigenvalues:
    -0.413957    0.126296    0.126296    0.126296    0.260859    0.260867
     0.268719    0.268915    0.448446    0.449054    0.449054    0.449054
     0.449054    0.449066    0.661307    0.701646    0.865247    0.890664
     0.951138    0.951181    0.951249    0.951278    0.978745    0.978793
     2.545392

 Minimum Search - Taking P-RFO Step
 Searching for Lamda that Maximizes Along the Constraint modes Only
 Value Taken    Lamda =   0.01406513
 Searching for Lamda that Minimizes Along All other modes
 Value Taken    Lamda =  -0.00693553
 Step Taken.  Stepsize is  0.053671

                             Maximum     Tolerance    Cnvgd?
         Gradient            0.147529       0.000300      NO
         Displacement        0.181709       0.001200      NO
         Energy change      0.097090       0.000001      NO


 New Cartesian Coordinates Obtained by Inverse Iteration

 Displacement from previous Coordinates is:  0.073395
 ----------------------------------------------------------------
             Standard Nuclear Orientation (Angstroms)
    I     Atom           X                Y                Z
 ----------------------------------------------------------------
    1      S      -1.1094399472    -0.0001478780    -0.0010690358
    2      C       0.1417436495    -0.0000201013    -0.0005799140
    3      C       1.0406265492     1.2513846492     0.0001596422
    4      C       1.0408889063    -1.2512392499     0.0001691606
    5      H       1.6976742966     1.2580780869     0.8794645973
    6      H       1.7039036195     1.2555608525    -0.8744445782
    7      H       0.4408835002     2.1621585500    -0.0030991936
    8      H       0.4413353073    -2.1621404684    -0.0017122393
    9      H       1.6990857378    -1.2571483519     0.8786179642
   10      H       1.7030283808    -1.2559160891    -0.8752964034
 ----------------------------------------------------------------
 Nuclear Repulsion Energy =   166.5553250683 hartrees
 There are       20 alpha and       20 beta electrons

                       Distance Matrix (Angstroms)
             S (  1)   C (  2)   C (  3)   C (  4)   H (  5)   H (  6)
   C (  2)  1.251184
   C (  3)  2.487794  1.540781
   C (  4)  2.487799  1.540783  2.502624
   H (  5)  3.199744  2.185912  1.097695  2.738832
   H (  6)  3.202263  2.186428  1.097673  2.736528  1.753922
   H (  7)  2.660653  2.182775  1.090510  3.465732  1.782078  1.782241
   H (  8)  2.660661  2.182778  3.465733  1.090509  3.748700  3.746521
   H (  9)  3.200268  2.186018  2.738247  1.097693  2.515227  3.063814
   H ( 10)  3.201750  2.186324  2.737107  1.097675  3.065841  2.511477
             H (  7)   H (  8)   H (  9)
   H (  8)  4.324299
   H (  9)  3.748621  1.782113
   H ( 10)  3.746595  1.782207  1.753919
 
 Applying Cartesian multipole field
    Component          Value
    ---------          -----
     (2,0,0)        1.00000E-11
     (0,2,0)        2.00000E-11
     (0,0,2)       -3.00000E-10
 Nucleus-field energy     =     0.0000000008 hartrees
 Requested basis set is 6-31G(d,p)
 There are 35 shells and 94 basis functions
 A cutoff of  1.0D-14 yielded    620 shell pairs
 There are      4567 function pairs
 Smallest overlap matrix eigenvalue = 5.85E-03
 Guess from superposition of atomic densities
 Warning:  Energy on first SCF cycle will be non-variational
 SAD guess density has 40.000000 electrons

 -----------------------------------------------------------------------
  General SCF calculation program by
  Eric Jon Sundstrom, Paul Horn, Yuezhi Mao, Dmitri Zuev, Alec White,
  David Stuck, Shaama M.S., Shane Yost, Joonho Lee, David Small,
  Daniel Levine, Susi Lehtola, Hugh Burton, Evgeny Epifanovsky
 -----------------------------------------------------------------------
 Exchange:     0.2000 Hartree-Fock + 0.0800 Slater + 0.7200 B88
 Correlation:  0.1900 VWN1RPA + 0.8100 LYP
 Using SG-1 standard quadrature grid
 using 16 threads for integral computing
 -------------------------------------------------------
 OpenMP Integral computing Module                
 Release: version 1.0, May 2013, Q-Chem Inc. Pittsburgh 
 -------------------------------------------------------
 -------------------------------------------------------
 OpenMP BLAS3 based DFT computing Module                
 Release: version 1.0, May 2013, Q-Chem Inc. Pittsburgh 
 -------------------------------------------------------
 A unrestricted SCF calculation will be
 performed using DIIS
 SCF converges when DIIS error is below 1.0e-06
 Alpha HF Exchange    Energy =  -4.34414994742512
 Beta HF Exchange     Energy =  -4.34414994742512
 DFT Correlation      Energy =  -1.81947788761910
 DFT Exchange         Energy = -33.65139002064915
 One-Electron (alpha) Energy = -516.82966510126539
 One-Electron (beta)  Energy = -516.82966510126539
 Total Coulomb        Energy = 394.02188884144505
 ---------------------------------------
  Cycle       Energy         DIIS error
 ---------------------------------------
    1    -517.2412840952      4.44e-02  
 Alpha HF Exchange    Energy =  -4.32992698184593
 Beta HF Exchange     Energy =  -4.32992698184594
 DFT Correlation      Energy =  -1.85233636780285
 DFT Exchange         Energy = -34.35290115435986
 One-Electron (alpha) Energy = -521.29693307074035
 One-Electron (beta)  Energy = -521.29693307074069
 Total Coulomb        Energy = 405.12965460390529
    2    -515.7739779544      5.22e-03  
 Alpha HF Exchange    Energy =  -4.25848632832064
 Beta HF Exchange     Energy =  -4.25848632832065
 DFT Correlation      Energy =  -1.81761131884720
 DFT Exchange         Energy = -33.74957881648975
 One-Electron (alpha) Energy = -515.95713442702879
 One-Electron (beta)  Energy = -515.95713442702913
 Total Coulomb        Energy = 393.77078597672835
    3    -515.6723206003      6.89e-03  
 Alpha HF Exchange    Energy =  -4.29213513144787
 Beta HF Exchange     Energy =  -4.29213513144788
 DFT Correlation      Energy =  -1.83596015621401
 DFT Exchange         Energy = -34.03511635726956
 One-Electron (alpha) Energy = -518.78018837224977
 One-Electron (beta)  Energy = -518.78018837225000
 Total Coulomb        Energy = 399.56351058013979
    4    -515.8968878717      9.41e-04  
 Alpha HF Exchange    Energy =  -4.29468513411197
 Beta HF Exchange     Energy =  -4.29468513411197
 DFT Correlation      Energy =  -1.83653757717268
 DFT Exchange         Energy = -34.05478755675858
 One-Electron (alpha) Energy = -518.89968070930479
 One-Electron (beta)  Energy = -518.89968070930502
 Total Coulomb        Energy = 399.82406850647749
    5    -515.9006632452      2.10e-04  
 Alpha HF Exchange    Energy =  -4.29403778204836
 Beta HF Exchange     Energy =  -4.29403778204835
 DFT Correlation      Energy =  -1.83621339274956
 DFT Exchange         Energy = -34.04948215442065
 One-Electron (alpha) Energy = -518.86348707981574
 One-Electron (beta)  Energy = -518.86348707981506
 Total Coulomb        Energy = 399.74458720851976
    6    -515.9008329933      6.42e-05  
 Alpha HF Exchange    Energy =  -4.29395058385716
 Beta HF Exchange     Energy =  -4.29395058385716
 DFT Correlation      Energy =  -1.83620763202150
 DFT Exchange         Energy = -34.04879004650716
 One-Electron (alpha) Energy = -518.84858762155477
 One-Electron (beta)  Energy = -518.84858762155477
 Total Coulomb        Energy = 399.71389963145651
    7    -515.9008493889      1.42e-05  
 Alpha HF Exchange    Energy =  -4.29399985092134
 Beta HF Exchange     Energy =  -4.29399985092134
 DFT Correlation      Energy =  -1.83622593191253
 DFT Exchange         Energy = -34.04917762323936
 One-Electron (alpha) Energy = -518.85509186926299
 One-Electron (beta)  Energy = -518.85509186926299
 Total Coulomb        Energy = 399.72741151303131
    8    -515.9008504134      1.23e-06  
 Alpha HF Exchange    Energy =  -4.29400219289138
 Beta HF Exchange     Energy =  -4.29400219289139
 DFT Correlation      Energy =  -1.83622728916713
 DFT Exchange         Energy = -34.04919358912194
 One-Electron (alpha) Energy = -518.85508815940955
 One-Electron (beta)  Energy = -518.85508815940977
 Total Coulomb        Energy = 399.72742609119268
    9    -515.9008504227      2.96e-07  Convergence criterion met
 ---------------------------------------
 SCF time:   CPU 17.93s  wall 1.00s 
<S^2> =          0.000000000
 Alpha HF Exchange    Energy =  -4.29400219289138
 Beta HF Exchange     Energy =  -4.29400219289139
 DFT Correlation      Energy =  -1.83622728916713
 DFT Exchange         Energy = -34.04919358912194
 One-Electron (alpha) Energy = -518.85508815940955
 One-Electron (beta)  Energy = -518.85508815940977
 Total Coulomb        Energy = 399.72742609119268
 Nuclear repulsion Energy = 166.55532506904586
 SCF   energy in the final basis set =     -515.9008504227
 Total energy in the final basis set =     -515.9008504227
 
 --------------------------------------------------------------
 
                    Orbital Energies (a.u.)
 --------------------------------------------------------------
 
 Alpha MOs
 -- Occupied --
-88.824 -10.217 -10.182 -10.182  -7.917  -5.880  -5.876  -5.868
 -0.908  -0.724  -0.696  -0.499  -0.459  -0.456  -0.428  -0.388
 -0.375  -0.363  -0.346  -0.198
 -- Virtual --
 -0.023   0.086   0.147   0.147   0.155   0.165   0.165   0.182
  0.216   0.217   0.315   0.341   0.463   0.513   0.527   0.544
  0.558   0.606   0.619   0.688   0.700   0.729   0.772   0.781
  0.785   0.803   0.869   0.892   0.902   0.904   0.919   0.955
  0.964   1.126   1.226   1.329   1.450   1.555   1.650   1.695
  1.744   1.822   1.875   1.961   2.031   2.039   2.062   2.067
  2.099   2.106   2.111   2.214   2.351   2.414   2.434   2.482
  2.617   2.703   2.719   2.751   2.809   2.879   2.903   2.993
  3.166   3.230   3.397   3.411   3.438   3.471   3.987   4.244
  4.491   4.616
 
 Beta MOs
 -- Occupied --
-88.824 -10.217 -10.182 -10.182  -7.917  -5.880  -5.876  -5.868
 -0.908  -0.724  -0.696  -0.499  -0.459  -0.456  -0.428  -0.388
 -0.375  -0.363  -0.346  -0.198
 -- Virtual --
 -0.023   0.086   0.147   0.147   0.155   0.165   0.165   0.182
  0.216   0.217   0.315   0.341   0.463   0.513   0.527   0.544
  0.558   0.606   0.619   0.688   0.700   0.729   0.772   0.781
  0.785   0.803   0.869   0.892   0.902   0.904   0.919   0.955
  0.964   1.126   1.226   1.329   1.450   1.555   1.650   1.695
  1.744   1.822   1.875   1.961   2.031   2.039   2.062   2.067
  2.099   2.106   2.111   2.214   2.351   2.414   2.434   2.482
  2.617   2.703   2.719   2.751   2.809   2.879   2.903   2.993
  3.166   3.230   3.397   3.411   3.438   3.471   3.987   4.244
  4.491   4.616
 --------------------------------------------------------------
 
          Ground-State Mulliken Net Atomic Charges

     Atom                 Charge (a.u.)    Spin (a.u.)
  --------------------------------------------------------
      1 S                    -0.057901       0.000000
      2 C                     0.065786      -0.000000
      3 C                    -0.355587       0.000000
      4 C                    -0.355587       0.000000
      5 H                     0.116892      -0.000000
      6 H                     0.116753      -0.000000
      7 H                     0.117998      -0.000000
      8 H                     0.117998      -0.000000
      9 H                     0.116859       0.000000
     10 H                     0.116787       0.000000
  --------------------------------------------------------
  Sum of atomic charges =     0.000000
  Sum of spin   charges =    -0.000000

 -----------------------------------------------------------------
                    Cartesian Multipole Moments
 -----------------------------------------------------------------
    Charge (ESU x 10^10)
                -0.0000
    Dipole Moment (Debye)
         X       1.6735      Y       0.0002      Z       0.0020
       Tot       1.6735
    Quadrupole Moments (Debye-Ang)
        XX     -32.9263     XY      -0.0001     YY     -32.5907
        XZ      -0.0003     YZ       0.0005     ZZ     -30.8702
    Octopole Moments (Debye-Ang^2)
       XXX      -6.9848    XXY       0.0007    XYY      -1.6614
       YYY       0.0028    XXZ       0.0096    XYZ       0.0012
       YYZ       0.0108    XZZ      -2.7124    YZZ       0.0008
       ZZZ       0.0441
    Hexadecapole Moments (Debye-Ang^3)
      XXXX    -253.1264   XXXY      -0.0006   XXYY     -81.3081
      XYYY      -0.0038   YYYY    -203.6207   XXXZ      -0.0847
      XXYZ       0.0011   XYYZ      -0.0134   YYYZ      -0.0040
      XXZZ     -45.6547   XYZZ      -0.0001   YYZZ     -42.9989
      XZZZ      -0.0369   YZZZ       0.0040   ZZZZ     -45.9363
 -----------------------------------------------------------------
 Calculating analytic gradient of the SCF energy
 Gradient of SCF Energy
            1           2           3           4           5           6
    1   0.8453678  -0.8252899  -0.0126488  -0.0126501   0.0008778   0.0008862
    2   0.0000865  -0.0000837  -0.0037906   0.0037864  -0.0001654  -0.0001749
    3   0.0003489  -0.0003281  -0.0000190  -0.0000147   0.0000444  -0.0000351
            7           8           9          10
    1   0.0008457   0.0008462   0.0008792   0.0008858
    2  -0.0006448   0.0006456   0.0001668   0.0001741
    3  -0.0000007  -0.0000023   0.0000429  -0.0000362
 Max gradient component =       8.454E-01
 RMS gradient           =       2.157E-01
 Gradient time:  CPU 8.11 s  wall 0.59 s
 Geometry Optimization Parameters
   NAtoms,    NIC,     NZ,  NCons,   NDum,   NFix, NCnnct, MaxDiis
       10      56       0       1       0       0       0       0

 Cartesian Hessian Update
 Hessian Updated using BFGS Update


** CONSTRAINED OPTIMIZATION IN DELOCALIZED INTERNAL COORDINATES **
   Searching for a Minimum

   Optimization Cycle:   5

                       Coordinates (Angstroms)
     ATOM                X               Y               Z
      1  S        -1.1094399472   -0.0001478780   -0.0010690358
      2  C         0.1417436495   -0.0000201013   -0.0005799140
      3  C         1.0406265492    1.2513846492    0.0001596422
      4  C         1.0408889063   -1.2512392499    0.0001691606
      5  H         1.6976742966    1.2580780869    0.8794645973
      6  H         1.7039036195    1.2555608525   -0.8744445782
[...]
   Searching for a Minimum

   Optimization Cycle:  13

                       Coordinates (Angstroms)
     ATOM                X               Y               Z
      1  S        -1.1527889466    0.0053423141    0.0035391826
      2  C         0.1331106076   -0.0376162345    0.0025380429
      3  C         1.1890281660    1.3310111400   -0.0116321337
      4  C         1.1174664454   -1.4308387597   -0.0143406237
      5  H         1.7030419524    1.3317545607    0.9210308062
      6  H         1.7174257703    1.3294430422   -0.9122626270
      7  H         0.3291580617    2.2792724371   -0.0005795374
      8  H         0.3950198142   -2.1728739023   -0.0029347309
      9  H         1.6810423567   -1.3183893211    0.9069105410
     10  H         1.6872357723   -1.3165352765   -0.8900589201
   Point Group: c1    Number of degrees of freedom:    24


   Energy is   -515.937315074

              Constraints and their Current Values
                                        Value     Constraint
   Distance(Angs):        1   2             1.286617     1.250000

   Using Penalty Function Algorithm


 Translations and Rotations Projected Out of Hessian

 24 Hessian modes will be used to form the next step
  Hessian Eigenvalues:
     0.338436    0.507827    0.622150    0.852024    0.968104    0.995660
     0.999121    0.999715    0.999988    1.000000    1.000000    1.000000
     1.000000    1.000000    1.000014    1.000098    1.000432    1.001458
     1.007284    1.047116    1.222562    1.527464    6.361028   22.624913

 Minimum Search - Taking Simple RFO Step
 Searching for Lamda that Minimizes Along All modes
 Value Taken    Lamda =  -0.01253608
 Step Taken.  Stepsize is  0.163923

                             Maximum     Tolerance    Cnvgd?
         Gradient           0.057335      0.000300      NO
         Displacement       0.078933      0.001200      NO
         Energy change     -0.099983      0.000001      NO

 ----------------------------------------------------------------
             Standard Nuclear Orientation (Angstroms)
    I     Atom           X                Y                Z
 ----------------------------------------------------------------
    1      S      -1.1367248803    -0.0052802434     0.0034209698
    2      C       0.1507036019    -0.0104191559     0.0003671527
    3      C       1.1486640875     1.3156877934    -0.0086032049
    4      C       1.1015808706    -1.3890692114    -0.0096166270
    5      H       1.7033784863     1.3377708916     0.9099697338
    6      H       1.7154159903     1.3347249600    -0.9005263410
    7      H       0.3518536011     2.2476145057    -0.0021935560
    8      H       0.3924587378    -2.1752042065    -0.0029823879
    9      H       1.6825696928    -1.3283454293     0.8968930824
   10      H       1.6898398119    -1.3269099043    -0.8845188219
 ----------------------------------------------------------------
 Nuclear Repulsion Energy =   159.9602435008 hartrees
 There are       20 alpha and       20 beta electrons

                       Distance Matrix (Angstroms)
             S (  1)   C (  2)   C (  3)   C (  4)   H (  5)   H (  6)
   C (  2)  1.287442
   C (  3)  2.639717  1.659688
   C (  4)  2.631550  1.674796  2.705167
   H (  5)  3.269832  2.248509  1.073300  2.939976
   H (  6)  3.278329  2.251521  1.056928  2.930797  1.810539
   H (  7)  2.700265  2.266977  1.226147  3.713168  1.867211  1.870741
   H (  8)  2.654621  2.178245  3.571863  1.058729  3.859143  3.856865
   H (  9)  3.239941  2.210724  2.845328  1.078423  2.666230  3.213058
   H ( 10)  3.244166  2.210229  2.836093  1.056109  3.212615  2.661806
             H (  7)   H (  8)   H (  9)
   H (  8)  4.423005
   H (  9)  3.920032  1.786430
   H ( 10)  3.917388  1.783229  1.781427
 
 Applying Cartesian multipole field
    Component          Value
    ---------          -----
     (2,0,0)        1.00000E-11
     (0,2,0)        2.00000E-11
     (0,0,2)       -3.00000E-10
 Nucleus-field energy     =     0.0000000010 hartrees
 Requested basis set is 6-31G(d,p)
 There are 35 shells and 94 basis functions
 A cutoff of  1.0D-14 yielded    620 shell pairs
 There are      4567 function pairs
 Smallest overlap matrix eigenvalue = 6.54E-03
 Guess from superposition of atomic densities
 Warning:  Energy on first SCF cycle will be non-variational
 SAD guess density has 40.000000 electrons

 -----------------------------------------------------------------------
  General SCF calculation program by
  Eric Jon Sundstrom, Paul Horn, Yuezhi Mao, Dmitri Zuev, Alec White,
  David Stuck, Shaama M.S., Shane Yost, Joonho Lee, David Small,
  Daniel Levine, Susi Lehtola, Hugh Burton, Evgeny Epifanovsky
 -----------------------------------------------------------------------
 Exchange:     0.2000 Hartree-Fock + 0.0800 Slater + 0.7200 B88
 Correlation:  0.1900 VWN1RPA + 0.8100 LYP
 Using SG-1 standard quadrature grid
 using 16 threads for integral computing
 -------------------------------------------------------
 OpenMP Integral computing Module                
 Release: version 1.0, May 2013, Q-Chem Inc. Pittsburgh 
 -------------------------------------------------------
 -------------------------------------------------------
 OpenMP BLAS3 based DFT computing Module                
 Release: version 1.0, May 2013, Q-Chem Inc. Pittsburgh 
 -------------------------------------------------------
 A unrestricted SCF calculation will be
 performed using DIIS
 SCF converges when DIIS error is below 1.0e-06
 Alpha HF Exchange    Energy =  -4.31248109367295
 Beta HF Exchange     Energy =  -4.31248109367295
 DFT Correlation      Energy =  -1.81198102633862
 DFT Exchange         Energy = -33.58990353279312
 One-Electron (alpha) Energy = -510.38785961531556
 One-Electron (beta)  Energy = -510.38785961531556
 Total Coulomb        Energy = 387.90823324446467
 ---------------------------------------
  Cycle       Energy         DIIS error
 ---------------------------------------
    1    -516.9340892309      4.05e-02  
 Alpha HF Exchange    Energy =  -4.31490108165634
 Beta HF Exchange     Energy =  -4.31490108165634
 DFT Correlation      Energy =  -1.84361337692656
 DFT Exchange         Energy = -34.24725563904865
 One-Electron (alpha) Energy = -514.40411427646734
 One-Electron (beta)  Energy = -514.40411427646688
 Total Coulomb        Energy = 397.75054022353703
    2    -515.8181160069      4.82e-03  
 Alpha HF Exchange    Energy =  -4.25148588496437
 Beta HF Exchange     Energy =  -4.25148588496437
 DFT Correlation      Energy =  -1.81222271277437
 DFT Exchange         Energy = -33.70405055054800
 One-Electron (alpha) Energy = -510.10714131970064
 One-Electron (beta)  Energy = -510.10714131970053
 Total Coulomb        Energy = 388.53378921143769
    3    -515.7394949594      6.19e-03  
 Alpha HF Exchange    Energy =  -4.27998085360502
 Beta HF Exchange     Energy =  -4.27998085360502
 DFT Correlation      Energy =  -1.82840248892359
 DFT Exchange         Energy = -33.95089159880148
 One-Electron (alpha) Energy = -512.25634817863249
 One-Electron (beta)  Energy = -512.25634817863238
 Total Coulomb        Energy = 392.96709252391531
    4    -515.9246161265      1.02e-03  
 Alpha HF Exchange    Energy =  -4.28236367316202
 Beta HF Exchange     Energy =  -4.28236367316203
 DFT Correlation      Energy =  -1.82885022305139
 DFT Exchange         Energy = -33.96861689815643
 One-Electron (alpha) Energy = -512.35429947382863
 One-Electron (beta)  Energy = -512.35429947382875
 Total Coulomb        Energy = 393.18134563532044
    5    -515.9292042781      2.38e-04  
 Alpha HF Exchange    Energy =  -4.28221459093266
 Beta HF Exchange     Energy =  -4.28221459093266
 DFT Correlation      Energy =  -1.82871622048916
 DFT Exchange         Energy = -33.96740121656032
 One-Electron (alpha) Energy = -512.37472542142473
 One-Electron (beta)  Energy = -512.37472542142484
 Total Coulomb        Energy = 393.22035510340220
    6    -515.9293988566      9.96e-05  
 Alpha HF Exchange    Energy =  -4.28198086764765
 Beta HF Exchange     Energy =  -4.28198086764765
 DFT Correlation      Energy =  -1.82865953614473
 DFT Exchange         Energy = -33.96551524091019
 One-Electron (alpha) Energy = -512.34242945830908
 One-Electron (beta)  Energy = -512.34242945830897
 Total Coulomb        Energy = 393.15330642235756
    7    -515.9294455048      1.16e-05  
 Alpha HF Exchange    Energy =  -4.28203004047579
 Beta HF Exchange     Energy =  -4.28203004047579
 DFT Correlation      Energy =  -1.82867889466335
 DFT Exchange         Energy = -33.96589870934350
 One-Electron (alpha) Energy = -512.34812569716189
 One-Electron (beta)  Energy = -512.34812569716178
 Total Coulomb        Energy = 393.16519940019612
    8    -515.9294461773      2.22e-06  
 Alpha HF Exchange    Energy =  -4.28203254316502
 Beta HF Exchange     Energy =  -4.28203254316503
 DFT Correlation      Energy =  -1.82868052857143
 DFT Exchange         Energy = -33.96591694334283
 One-Electron (alpha) Energy = -512.34817477372212
 One-Electron (beta)  Energy = -512.34817477372223
 Total Coulomb        Energy = 393.16532240765366
    9    -515.9294461962      1.19e-06  
 Alpha HF Exchange    Energy =  -4.28203238809974
 Beta HF Exchange     Energy =  -4.28203238809974
 DFT Correlation      Energy =  -1.82868040924000
 DFT Exchange         Energy = -33.96591455451877
 One-Electron (alpha) Energy = -512.34812598345593
 One-Electron (beta)  Energy = -512.34812598345616
 Total Coulomb        Energy = 393.16522200234357
   10    -515.9294462027      1.98e-07  Convergence criterion met
 ---------------------------------------
 SCF time:   CPU 19.90s  wall 2.00s 
<S^2> =         -0.000000000
 Alpha HF Exchange    Energy =  -4.28203238809974
 Beta HF Exchange     Energy =  -4.28203238809974
 DFT Correlation      Energy =  -1.82868040924000
 DFT Exchange         Energy = -33.96591455451877
 One-Electron (alpha) Energy = -512.34812598345593
 One-Electron (beta)  Energy = -512.34812598345616
 Total Coulomb        Energy = 393.16522200234357
 Nuclear repulsion Energy = 159.96024350178874
 SCF   energy in the final basis set =     -515.9294462027
 Total energy in the final basis set =     -515.9294462027
 
 --------------------------------------------------------------
 
                    Orbital Energies (a.u.)
 --------------------------------------------------------------
 
 Alpha MOs
 -- Occupied --
-88.835 -10.229 -10.194 -10.179  -7.923  -5.885  -5.883  -5.875
 -0.888  -0.710  -0.686  -0.482  -0.451  -0.441  -0.416  -0.409
 -0.373  -0.352  -0.345  -0.199
 -- Virtual --
 -0.026   0.083   0.116   0.138   0.146   0.161   0.165   0.178
  0.199   0.206   0.314   0.336   0.438   0.496   0.527   0.542
  0.553   0.593   0.604   0.659   0.694   0.720   0.739   0.767
  0.779   0.822   0.833   0.895   0.907   0.911   0.924   0.962
  0.991   1.064   1.216   1.346   1.387   1.547   1.635   1.659
  1.724   1.808   1.817   1.874   1.967   1.991   2.024   2.032
  2.072   2.083   2.112   2.209   2.354   2.451   2.468   2.527
  2.553   2.564   2.628   2.709   2.774   2.854   2.882   2.933
  3.084   3.308   3.412   3.450   3.477   3.490   3.970   4.199
  4.504   4.525
 
 Beta MOs
 -- Occupied --
-88.835 -10.229 -10.194 -10.179  -7.923  -5.885  -5.883  -5.875
 -0.888  -0.710  -0.686  -0.482  -0.451  -0.441  -0.416  -0.409
 -0.373  -0.352  -0.345  -0.199
 -- Virtual --
 -0.026   0.083   0.116   0.138   0.146   0.161   0.165   0.178
  0.199   0.206   0.314   0.336   0.438   0.496   0.527   0.542
  0.553   0.593   0.604   0.659   0.694   0.720   0.739   0.767
  0.779   0.822   0.833   0.895   0.907   0.911   0.924   0.962
  0.991   1.064   1.216   1.346   1.387   1.547   1.635   1.659
  1.724   1.808   1.817   1.874   1.967   1.991   2.024   2.032
  2.072   2.083   2.112   2.209   2.354   2.451   2.468   2.527
  2.553   2.564   2.628   2.709   2.774   2.854   2.882   2.933
  3.084   3.308   3.412   3.450   3.477   3.490   3.970   4.199
  4.504   4.525
 --------------------------------------------------------------
 
          Ground-State Mulliken Net Atomic Charges

     Atom                 Charge (a.u.)    Spin (a.u.)
  --------------------------------------------------------
      1 S                    -0.037681       0.000000
      2 C                     0.018758      -0.000000
      3 C                    -0.345853       0.000000
      4 C                    -0.349795      -0.000000
      5 H                     0.126410      -0.000000
      6 H                     0.128391      -0.000000
      7 H                     0.092599      -0.000000
      8 H                     0.123630      -0.000000
      9 H                     0.120047      -0.000000
     10 H                     0.123494       0.000000
  --------------------------------------------------------
  Sum of atomic charges =    -0.000000
  Sum of spin   charges =     0.000000

 -----------------------------------------------------------------
                    Cartesian Multipole Moments
 -----------------------------------------------------------------
    Charge (ESU x 10^10)
                -0.0000
    Dipole Moment (Debye)
         X       1.4331      Y      -0.0713      Z      -0.0105
       Tot       1.4349
    Quadrupole Moments (Debye-Ang)
        XX     -32.7705     XY       0.2004     YY     -33.2646
        XZ      -0.0353     YZ       0.0091     ZZ     -30.7144
    Octopole Moments (Debye-Ang^2)
       XXX      -9.1975    XXY       0.6227    XYY      -3.4064
       YYY       0.0795    XXZ      -0.1344    XYZ       0.0066
       YYZ       0.0204    XZZ      -2.4471    YZZ       0.3009
       ZZZ       0.0602
    Hexadecapole Moments (Debye-Ang^3)
      XXXX    -267.0417   XXXY       0.6909   XXYY     -88.6834
      XYYY       0.1801   YYYY    -234.1257   XXXZ       0.0127
      XXYZ      -0.0058   XYYZ       0.0338   YYYZ       0.0390
      XXZZ     -47.0217   XYZZ       0.3486   YYZZ     -46.4314
      XZZZ       0.3100   YZZZ      -0.0006   ZZZZ     -45.5231
 -----------------------------------------------------------------
 Calculating analytic gradient of the SCF energy
 Gradient of SCF Energy
            1           2           3           4           5           6
    1   0.6651520  -0.6975463   0.0947162   0.0327957  -0.0129250  -0.0186584
    2  -0.0052365   0.0068954  -0.0133509  -0.0612604  -0.0007817  -0.0010685
    3  -0.0023378   0.0046365  -0.0129019  -0.0158876  -0.0064135   0.0168749
            7           8           9          10
    1  -0.0433580   0.0071958  -0.0095284  -0.0178436
    2   0.0401893   0.0227969   0.0063021   0.0055144
    3   0.0012908   0.0009408  -0.0051757   0.0189736
 Max gradient component =       6.975E-01
 RMS gradient           =       1.779E-01
 Gradient time:  CPU 8.09 s  wall 0.57 s
 Geometry Optimization Parameters
   NAtoms,    NIC,     NZ,  NCons,   NDum,   NFix, NCnnct, MaxDiis
       10      56       0       1       0       0       0       0

 Cartesian Hessian Update
 Hessian Updated using BFGS Update


** CONSTRAINED OPTIMIZATION IN CARTESIAN COORDINATES **
   Searching for a Minimum

   Optimization Cycle:  15

                       Coordinates (Angstroms)
     ATOM                X               Y               Z
      1  S        -1.1138162662    0.0059037149    0.0021747066
      2  C         0.1767667029   -0.0026431021   -0.0012577688
      3  C         1.0395393566    1.2902872944    0.0092886130
      4  C         1.0661866767   -1.3262905196    0.0082954218
      5  H         1.7145853442    1.3516013398    0.9101593179
      6  H         1.7314874094    1.3486137781   -0.9134316876
      7  H         0.3938756731    2.2084801631   -0.0052106652
      8  H         0.3936131974   -2.1859981102   -0.0038634426
      9  H         1.6914976458   -1.3460450923    0.8900364048
     10  H         1.7060042600   -1.3433394661   -0.8939808999
   Point Group: c1    Number of degrees of freedom:    24


   Energy is   -515.929446203

              Constraints and their Current Values
                                        Value     Constraint
   Distance(Angs):        1   2             1.290616     1.250000

   Using Penalty Function Algorithm


 Translations and Rotations Projected Out of Hessian

 24 Hessian modes will be used to form the next step
  Hessian Eigenvalues:
     0.096584    0.444782    0.632717    0.823184    0.862187    0.969684
     0.989256    0.996516    0.999230    0.999954    1.000000    1.000000
     1.000000    1.000000    1.000006    1.000063    1.000209    1.000830
     1.007490    1.019073    1.071281    1.581737    5.927816   22.840993

 Minimum Search - Taking Simple RFO Step
 Searching for Lamda that Minimizes Along All modes
 Value Taken    Lamda =  -0.09483131
 Calculated Step too Large.  Step scaled by  0.431843
 Step Taken.  Stepsize is  0.300000

                             Maximum     Tolerance    Cnvgd?
         Gradient           0.102356      0.000300      NO
         Displacement       0.200881      0.001200      NO
         Energy change     -0.126918      0.000001      NO

 ----------------------------------------------------------------
             Standard Nuclear Orientation (Angstroms)
    I     Atom           X                Y                Z
 ----------------------------------------------------------------
    1      S      -1.0902678988     0.0067201407     0.0016448956
    2      C       0.1978253410     0.0133848793    -0.0038411043
    3      C       0.9332378758     1.2681572646     0.0259991281
    4      C       1.0232760905    -1.2626663417     0.0238646195
    5      H       1.7270938253     1.3636058655     0.9086468810
    6      H       1.7483160123     1.3605103079    -0.9234355418
    7      H       0.4379533743     2.1658880598    -0.0079293619
    8      H       0.3958571483    -2.1930075680    -0.0045525614
    9      H       1.7027255064    -1.3627288037     0.8859458348
   10      H       1.7237227249    -1.3592938044    -0.9041327894
 ----------------------------------------------------------------
 Nuclear Repulsion Energy =   165.9645130250 hartrees
 There are       20 alpha and       20 beta electrons

 Q-Chem warning in module libmdc/newfileman.C, line 238:

 Error removing /staging/pv/kris658/.QCSCRATCH/CHOSx.save/36.0


 Q-Chem warning in module libmdc/newfileman.C, line 238:

 Error removing /staging/pv/kris658/.QCSCRATCH/CHOSx.save/11.0


 Q-Chem warning in module libmdc/newfileman.C, line 238:

 Error removing /staging/pv/kris658/.QCSCRATCH/CHOSx.save/93.0


 Q-Chem warning in module libmdc/newfileman.C, line 238:

 Error removing /staging/pv/kris658/.QCSCRATCH/CHOSx.save/16.0


                       Distance Matrix (Angstroms)
             S (  1)   C (  2)   C (  3)   C (  4)   H (  5)   H (  6)
   C (  2)  1.288122
   C (  3)  2.384616  1.454708
   C (  4)  2.465543  1.520014  2.532426
   H (  5)  3.255967  2.234814  1.190960  2.859284
   H (  6)  3.278121  2.250427  1.254714  2.881686  1.832208
   H (  7)  2.645290  2.165860  1.025855  3.478304  1.773599  1.789926
   H (  8)  2.654695  2.215262  3.502767  1.122496  3.905845  3.911647
   H (  9)  3.233913  2.224890  2.872835  1.102201  2.726538  3.269858
   H ( 10)  3.256527  2.241235  2.897156  1.166680  3.271141  2.719984
             H (  7)   H (  8)   H (  9)
   H (  8)  4.359100
   H (  9)  3.853544  1.786129
   H ( 10)  3.857887  1.807637  1.790205
 
 Applying Cartesian multipole field
    Component          Value
    ---------          -----
     (2,0,0)        1.00000E-11
     (0,2,0)        2.00000E-11
     (0,0,2)       -3.00000E-10
 Nucleus-field energy     =     0.0000000006 hartrees
 Requested basis set is 6-31G(d,p)
 There are 35 shells and 94 basis functions

 Q-Chem fatal error occurred in module libmdc/newfileman.C, line 384:

 FileMan error: End of file reached prematurely reading (224) bytes in file FILE_BOX_DATA
 Path: /staging/pv/kris658/.QCSCRATCH/CHOSx.save/75.0


 Please submit a crash report at q-chem.com/reporter 
 
 
