
Running Job 1 of 1 CHOSx.in
qchem CHOSx.in_17307.0 /staging/pv/kris658/.QCSCRATCH/CHOSx.save/ 1
/usr/usc/qchem/5.1.1/exe/qcprog.exe_s CHOSx.in_17307.0 /staging/pv/kris658/.QCSCRATCH/CHOSx.save/
Check license passed

                  Welcome to Q-Chem
     A Quantum Leap Into The Future Of Chemistry


 Q-Chem 5.1, Q-Chem, Inc., Pleasanton, CA (2018)

 Yihan Shao,  Zhengting Gan,  E. Epifanovsky,  A. T. B. Gilbert,  M. Wormit,  
 J. Kussmann,  A. W. Lange,  A. Behn,  Jia Deng,  Xintian Feng,  D. Ghosh,  
 M. Goldey,  P. R. Horn,  L. D. Jacobson,  I. Kaliman,  T. Kus,  A. Landau,  
 Jie Liu,  E. I. Proynov,  R. M. Richard,  R. P. Steele,  E. J. Sundstrom,  
 H. L. Woodcock III,  P. M. Zimmerman,  D. Zuev,  B. Albrecht,  E. Alguire,  
 S. A. Baeppler,  D. Barton,  Z. Benda,  Y. A. Bernard,  E. J. Berquist,  
 K. B. Bravaya,  H. Burton,  D. Casanova,  Chun-Min Chang,  Yunqing Chen,  
 A. Chien,  K. D. Closser,  M. P. Coons,  S. Coriani,  S. Dasgupta,  
 A. L. Dempwolff,  M. Diedenhofen,  Hainam Do,  R. G. Edgar,  Po-Tung Fang,  
 S. Faraji,  S. Fatehi,  Qingguo Feng,  K. D. Fenk,  J. Fosso-Tande,  
 Qinghui Ge,  A. Ghysels,  G. Gidofalvi,  J. Gomes,  J. Gonthier,  A. Gunina,  
 D. Hait,  M. W. D. Hanson-Heine,  P. H. P. Harbach,  A. W. Hauser,  
 J. E. Herr,  E. G. Hohenstein,  Z. C. Holden,  Kerwin Hui,  B. C. Huynh,  
 T.-C. Jagau,  Hyunjun Ji,  B. Kaduk,  K. Khistyaev,  Jaehoon Kim,  
 P. Klunzinger,  K. Koh,  D. Kosenkov,  L. Koulias,  T. Kowalczyk,  
 C. M. Krauter,  A. Kunitsa,  Ka Un Lao,  A. Laurent,  K. V. Lawler,  
 Joonho Lee,  D. Lefrancois,  S. Lehtola,  D. S. Levine,  Yi-Pei Li,  
 You-Sheng Lin,  Fenglai Liu,  E. Livshits,  A. Luenser,  P. Manohar,  
 E. Mansoor,  S. F. Manzer,  Shan-Ping Mao,  Yuezhi Mao,  N. Mardirossian,  
 A. V. Marenich,  T. Markovich,  L. A. Martinez-Martinez,  S. A. Maurer,  
 N. J. Mayhall,  S. C. McKenzie,  J.-M. Mewes,  A. F. Morrison,  
 J. W. Mullinax,  K. Nanda,  T. S. Nguyen-Beck,  R. Olivares-Amaya,  
 J. A. Parkhill,  T. M. Perrine,  F. Plasser,  P. Pokhilko,  S. Prager,  
 A. Prociuk,  E. Ramos,  D. R. Rehn,  F. Rob,  M. Schneider,  N. Sergueev,  
 S. M. Sharada,  S. Sharma,  D. W. Small,  T. Stauch,  T. Stein,  
 Yu-Chuan Su,  A. J. W. Thom,  A. Tkatchenko,  T. Tsuchimochi,  N. M. Tubman,  
 L. Vogt,  M. L. Vidal,  O. Vydrov,  M. A. Watson,  J. Wenzel,  
 M. de Wergifosse,  T. A. Wesolowski,  A. White,  J. Witte,  A. Yamada,  
 Jun Yang,  K. Yao,  S. Yeganeh,  S. R. Yost,  Zhi-Qiang You,  A. Zech,  
 Igor Ying Zhang,  Xing Zhang,  Yan Zhao,  Ying Zhu,  B. R. Brooks,  
 G. K. L. Chan,  C. J. Cramer,  M. S. Gordon,  W. J. Hehre,  A. Klamt,  
 M. W. Schmidt,  C. D. Sherrill,  D. G. Truhlar,  A. Aspuru-Guzik,  R. Baer,  
 A. T. Bell,  N. A. Besley,  Jeng-Da Chai,  A. E. DePrince, III,  
 R. A. DiStasio Jr.,  A. Dreuw,  B. D. Dunietz,  T. R. Furlani,  
 Chao-Ping Hsu,  Yousung Jung,  Jing Kong,  D. S. Lambrecht,  WanZhen Liang,  
 C. Ochsenfeld,  V. A. Rassolov,  L. V. Slipchenko,  J. E. Subotnik,  
 T. Van Voorhis,  J. M. Herbert,  A. I. Krylov,  P. M. W. Gill,  M. Head-Gordon

 Contributors to earlier versions of Q-Chem not listed above: 
 R. D. Adamson,  B. Austin,  J. Baker,  G. J. O. Beran,  K. Brandhorst,  
 S. T. Brown,  E. F. C. Byrd,  A. K. Chakraborty,  C.-L. Cheng,  
 Siu Hung Chien,  D. M. Chipman,  D. L. Crittenden,  H. Dachsel,  
 R. J. Doerksen,  A. D. Dutoi,  L. Fusti-Molnar,  W. A. Goddard III,  
 A. Golubeva-Zadorozhnaya,  S. R. Gwaltney,  G. Hawkins,  A. Heyden,  
 S. Hirata,  G. Kedziora,  F. J. Keil,  C. Kelley,  Jihan Kim,  R. A. King,  
 R. Z. Khaliullin,  P. P. Korambath,  W. Kurlancheek,  A. M. Lee,  M. S. Lee,  
 S. V. Levchenko,  Ching Yeh Lin,  D. Liotard,  R. C. Lochan,  I. Lotan,  
 P. E. Maslen,  N. Nair,  D. P. O'Neill,  D. Neuhauser,  E. Neuscamman,  
 C. M. Oana,  R. Olson,  B. Peters,  R. Peverati,  P. A. Pieniazek,  
 Y. M. Rhee,  J. Ritchie,  M. A. Rohrdanz,  E. Rosta,  N. J. Russ,  
 H. F. Schaefer III,  N. E. Schultz,  N. Shenvi,  A. C. Simmonett,  A. Sodt,  
 D. Stuck,  K. S. Thanthiriwatte,  V. Vanovschi,  Tao Wang,  A. Warshel,  
 C. F. Williams,  Q. Wu,  X. Xu,  W. Zhang

 Please cite Q-Chem as follows:
 Y. Shao et al., Mol. Phys. 113, 184-215 (2015)
 DOI: 10.1080/00268976.2014.952696

 Q-Chem 5.1.1 for Intel X86 EM64T Linux

 Parts of Q-Chem use Armadillo 8.300.2 (Tropical Shenanigans).
 http://arma.sourceforge.net/

 Q-Chem begins on Thu Nov  1 14:20:03 2018  

Host: 
0

     Scratch files written to /staging/pv/kris658/.QCSCRATCH/CHOSx.save//
 Aug318 |scratch|qcdevops|jenkins|workspace|build_RNUM 6013   
Processing $rem in /usr/usc/qchem/5.1.1/config/preferences.
 MEM_TOTAL  2000 
Input Ideriv = 2
Curr. Ideriv = -1
Max.  Ideriv = 2

Checking the input file for inconsistencies... 	...done.

--------------------------------------------------------------
User input:
--------------------------------------------------------------
$comment
Length-scal DFT calculation for PE - thioketone
$end

$molecule
0  1
S -1.38098 -0.00022 -0.00097
C 0.25794 -0.00002 -0.00047
C 1.06915 1.26908 0.00015
C 1.06941 -1.26894 0.00017
H 1.72543 1.29489 0.88022
H 1.73192 1.29229 -0.87506
H 0.43429 2.15444 -0.00332
H 0.43469 -2.15442 -0.00192
H 1.72689 -1.29395 0.87935
H 1.73099 -1.29258 -0.87594
$end

$rem
JOBTYPE  PES_SCAN
UNRESTRICTED TRUE
SYM_IGNORE  TRUE
GEOM_OPT_MAX_CYCLES 400
SCF_MAX_CYCLES 400
METHOD   B3LYP
BASIS   6-31G**
PDB_PRINT 2
SCF_CONVERGENCE 6
THRESH 14
SCF_PRINT 1
$end

$scan
stre 1 2 1.25 2.5 0.05
$end
--------------------------------------------------------------
 ----------------------------------------------------------------
             Standard Nuclear Orientation (Angstroms)
    I     Atom           X                Y                Z
 ----------------------------------------------------------------
    1      S      -1.3809800000    -0.0002200000    -0.0009700000
    2      C       0.2579400000    -0.0000200000    -0.0004700000
    3      C       1.0691500000     1.2690800000     0.0001500000
    4      C       1.0694100000    -1.2689400000     0.0001700000
    5      H       1.7254300000     1.2948900000     0.8802200000
    6      H       1.7319200000     1.2922900000    -0.8750600000
    7      H       0.4342900000     2.1544400000    -0.0033200000
    8      H       0.4346900000    -2.1544200000    -0.0019200000
    9      H       1.7268900000    -1.2939500000     0.8793500000
   10      H       1.7309900000    -1.2925800000    -0.8759400000
 ----------------------------------------------------------------
 Nuclear Repulsion Energy =   152.2070838989 hartrees
 There are       20 alpha and       20 beta electrons
 Requested basis set is 6-31G(d,p)
 There are 35 shells and 94 basis functions

 Total QAlloc Memory Limit   2000 MB
 Mega-Array Size       188 MB
 MEM_STATIC part       192 MB
A total of 1 constraints
  
            1
    1   1.0100000
    2   1.0100000
    3   2.0100000
    4   1.2500000
    5   2.5000000
    6   0.0500000
    7   0.0000000
    8   0.0000000
    9   0.0000000
   10   0.0000000

                       Distance Matrix (Angstroms)
             S (  1)   C (  2)   C (  3)   C (  4)   H (  5)   H (  6)
   C (  2)  1.638920
   C (  3)  2.759395  1.506213
   C (  4)  2.759359  1.506201  2.538020
   H (  5)  3.479021  2.146144  1.098132  2.788920
   H (  6)  3.482063  2.146530  1.098087  2.786547  1.755294
   H (  7)  2.817405  2.161667  1.089459  3.481798  1.785080  1.785239
   H (  8)  2.817310  2.161639  3.481795  1.089472  3.787073  3.784837
   H (  9)  3.479591  2.146195  2.788322  1.098118  2.588841  3.125159
   H ( 10)  3.481397  2.146401  2.787054  1.098096  3.127160  2.584870
             H (  7)   H (  8)   H (  9)
   H (  8)  4.308860
   H (  9)  3.786993  1.785168
   H ( 10)  3.784817  1.785237  1.755295
 
 A cutoff of  1.0D-14 yielded    618 shell pairs
 There are      4559 function pairs
 
 -------------------------------------------------------
 OpenMP Integral Computing Module                       
 Release: version 1.0, May 2013, Q-Chem Inc. Pittsburgh 
 -------------------------------------------------------
 Integral Job Info:
 Integral job number is                      11
 Integral operator is                         1
 short-range coefficients                     0
 long-range coefficients              100000000
 Omega coefficients                           0
 if combine SR and LR in K                    0
 Integral screening is                        0
 Integral computing path is                   2
 max size of driver memory is            800000
 size of driver memory is                593474
 size of scratch memory is             15267112
 max col of scratch BK array               1296
 max len of scratch array in speh3          155
 max len of scratch index in speh4           18
 max int batch size is                      520
 min int batch size is                       52
 fixed nKL is                                52
 max L of basis functions is                  2
 order of int derivative is                   0
 number of shells is                         35
 number of basis is                          94
 number of cartesian basis is                94
 number of contracted shell pairs           618
 number of primitive shell pairs           2443
 maxK2 (contraction) of shell pair           36
 max number of K2 of shell pair               1
 max number of CS2 of shell pair             48
 max number of PS2 of shell pair            222
 mem total for path MDJ                  514716
 -------------------------------------------------------
 Smallest overlap matrix eigenvalue = 6.93E-03

 Scale SEOQF with 1.000000e-01/1.000000e-01/1.000000e+00

 Standard Electronic Orientation quadrupole field applied
 Nucleus-field energy     =     0.0000000013 hartrees
 Guess from superposition of atomic densities
 Warning:  Energy on first SCF cycle will be non-variational
 SAD guess density has 40.000000 electrons

 -----------------------------------------------------------------------
  General SCF calculation program by
  Eric Jon Sundstrom, Paul Horn, Yuezhi Mao, Dmitri Zuev, Alec White,
  David Stuck, Shaama M.S., Shane Yost, Joonho Lee, David Small,
  Daniel Levine, Susi Lehtola, Hugh Burton, Evgeny Epifanovsky
 -----------------------------------------------------------------------
 Exchange:     0.2000 Hartree-Fock + 0.0800 Slater + 0.7200 B88
 Correlation:  0.1900 VWN1RPA + 0.8100 LYP
 Using SG-1 standard quadrature grid
 using 16 threads for integral computing
 -------------------------------------------------------
 OpenMP Integral computing Module                
 Release: version 1.0, May 2013, Q-Chem Inc. Pittsburgh 
 -------------------------------------------------------
 -------------------------------------------------------
 OpenMP BLAS3 based DFT computing Module                
 Release: version 1.0, May 2013, Q-Chem Inc. Pittsburgh 
 -------------------------------------------------------
 A unrestricted SCF calculation will be
 performed using DIIS
 SCF converges when DIIS error is below 1.0e-06
 Alpha HF Exchange    Energy =  -4.28828252669850
 Beta HF Exchange     Energy =  -4.28828252669850
 DFT Correlation      Energy =  -1.80763191394565
 DFT Exchange         Energy = -33.52593705159316
 One-Electron (alpha) Energy = -503.08546878049009
 One-Electron (beta)  Energy = -503.08546878049009
 Total Coulomb        Energy = 381.25657315182411
 ---------------------------------------
  Cycle       Energy         DIIS error
 ---------------------------------------
    1    -516.6174145280      3.31e-02  
 Alpha HF Exchange    Energy =  -4.29023184334459
 Beta HF Exchange     Energy =  -4.29023184334459
 DFT Correlation      Energy =  -1.83337139189410
 DFT Exchange         Energy = -34.04952075423940
 One-Electron (alpha) Energy = -506.37838556688416
 One-Electron (beta)  Energy = -506.37838556688416
 Total Coulomb        Energy = 388.96566082763366
    2    -516.0473822388      3.88e-03  
 Alpha HF Exchange    Energy =  -4.24139685582586
 Beta HF Exchange     Energy =  -4.24139685582586
 DFT Correlation      Energy =  -1.81062855299925
 DFT Exchange         Energy = -33.64098843452588
 One-Electron (alpha) Energy = -503.26213910363316
 One-Electron (beta)  Energy = -503.26213910363293
 Total Coulomb        Energy = 382.20268551699246
    3    -516.0489194893      3.90e-03  
 Alpha HF Exchange    Energy =  -4.26342227367557
 Beta HF Exchange     Energy =  -4.26342227367557
 DFT Correlation      Energy =  -1.82162353665098
 DFT Exchange         Energy = -33.82449323207702
 One-Electron (alpha) Energy = -504.70370959761726
 One-Electron (beta)  Energy = -504.70370959761732
 Total Coulomb        Energy = 385.25509089865869
    4    -516.1182057125      3.14e-04  
 Alpha HF Exchange    Energy =  -4.26434889211916
 Beta HF Exchange     Energy =  -4.26434889211915
 DFT Correlation      Energy =  -1.82158543283963
 DFT Exchange         Energy = -33.83050496724547
 One-Electron (alpha) Energy = -504.78571321594126
 One-Electron (beta)  Energy = -504.78571321594126
 Total Coulomb        Energy = 385.42682686754392
    5    -516.1183038485      2.98e-04  
 Alpha HF Exchange    Energy =  -4.26432883607816
 Beta HF Exchange     Energy =  -4.26432883607815
 DFT Correlation      Energy =  -1.82180189034822
 DFT Exchange         Energy = -33.83145713140682
 One-Electron (alpha) Energy = -504.79031159681711
 One-Electron (beta)  Energy = -504.79031159681682
 Total Coulomb        Energy = 385.43670348252135
    6    -516.1187525049      7.53e-05  
 Alpha HF Exchange    Energy =  -4.26411158627076
 Beta HF Exchange     Energy =  -4.26411158627076
 DFT Correlation      Energy =  -1.82167978140349
 DFT Exchange         Energy = -33.82945319348434
 One-Electron (alpha) Energy = -504.76468035194426
 One-Electron (beta)  Energy = -504.76468035194432
 Total Coulomb        Energy = 385.38285463453758
    7    -516.1187783167      7.95e-06  
 Alpha HF Exchange    Energy =  -4.26414290653890
 Beta HF Exchange     Energy =  -4.26414290653890
 DFT Correlation      Energy =  -1.82169452251472
 DFT Exchange         Energy = -33.82970745188091
 One-Electron (alpha) Energy = -504.76853298869213
 One-Electron (beta)  Energy = -504.76853298869219
 Total Coulomb        Energy = 385.39089123192878
    8    -516.1187786328      7.35e-07  Convergence criterion met
 ---------------------------------------
 SCF time:   CPU 26.40s  wall 2.00s 
<S^2> =          0.000000000
 Alpha HF Exchange    Energy =  -4.26414290653890
 Beta HF Exchange     Energy =  -4.26414290653890
 DFT Correlation      Energy =  -1.82169452251472
 DFT Exchange         Energy = -33.82970745188091
 One-Electron (alpha) Energy = -504.76853298869213
 One-Electron (beta)  Energy = -504.76853298869219
 Total Coulomb        Energy = 385.39089123192878
 Nuclear repulsion Energy = 152.20708390012877
 SCF   energy in the final basis set =     -516.1187786328
 Total energy in the final basis set =     -516.1187786328
 
 --------------------------------------------------------------
 
                    Orbital Energies (a.u.)
 --------------------------------------------------------------
 
 Alpha MOs
 -- Occupied --
-88.854 -10.266 -10.200 -10.200  -7.917  -5.880  -5.880  -5.871
 -0.833  -0.712  -0.704  -0.528  -0.454  -0.445  -0.442  -0.404
 -0.376  -0.355  -0.283  -0.216
 -- Virtual --
 -0.070   0.081   0.097   0.145   0.150   0.156   0.169   0.174
  0.221   0.233   0.315   0.370   0.432   0.435   0.499   0.501
  0.549   0.581   0.597   0.656   0.696   0.702   0.739   0.771
  0.805   0.812   0.851   0.875   0.889   0.894   0.905   0.940
  0.941   1.067   1.089   1.247   1.295   1.410   1.468   1.675
  1.715   1.820   1.858   1.868   1.907   2.016   2.023   2.032
  2.050   2.082   2.088   2.142   2.303   2.352   2.372   2.501
  2.575   2.584   2.690   2.690   2.803   2.849   2.889   2.927
  3.158   3.204   3.381   3.398   3.420   3.459   3.954   4.168
  4.470   4.528
 
 Beta MOs
 -- Occupied --
-88.854 -10.266 -10.200 -10.200  -7.917  -5.880  -5.880  -5.871
 -0.833  -0.712  -0.704  -0.528  -0.454  -0.445  -0.442  -0.404
 -0.376  -0.355  -0.283  -0.216
 -- Virtual --
 -0.070   0.081   0.097   0.145   0.150   0.156   0.169   0.174
  0.221   0.233   0.315   0.370   0.432   0.435   0.499   0.501
  0.549   0.581   0.597   0.656   0.696   0.702   0.739   0.771
  0.805   0.812   0.851   0.875   0.889   0.894   0.905   0.940
  0.941   1.067   1.089   1.247   1.295   1.410   1.468   1.675
  1.715   1.820   1.858   1.868   1.907   2.016   2.023   2.032
  2.050   2.082   2.088   2.142   2.303   2.352   2.372   2.501
  2.575   2.584   2.690   2.690   2.803   2.849   2.889   2.927
  3.158   3.204   3.381   3.398   3.420   3.459   3.954   4.168
  4.470   4.528
 --------------------------------------------------------------
 
          Ground-State Mulliken Net Atomic Charges

     Atom                 Charge (a.u.)    Spin (a.u.)
  --------------------------------------------------------
      1 S                    -0.133431       0.000000
      2 C                    -0.011157      -0.000000
      3 C                    -0.334848       0.000000
      4 C                    -0.334841       0.000000
      5 H                     0.130962      -0.000000
      6 H                     0.130742      -0.000000
      7 H                     0.145435      -0.000000
      8 H                     0.145434       0.000000
      9 H                     0.130915      -0.000000
     10 H                     0.130789      -0.000000
  --------------------------------------------------------
  Sum of atomic charges =     0.000000
  Sum of spin   charges =     0.000000

 -----------------------------------------------------------------
                    Cartesian Multipole Moments
 -----------------------------------------------------------------
    Charge (ESU x 10^10)
                 0.0000
    Dipole Moment (Debye)
         X       3.0657      Y       0.0004      Z       0.0029
       Tot       3.0657
    Quadrupole Moments (Debye-Ang)
        XX     -33.1205     XY      -0.0000     YY     -32.0361
        XZ       0.0008     YZ       0.0006     ZZ     -32.1518
    Octopole Moments (Debye-Ang^2)
       XXX       4.1156    XXY       0.0016    XYY       3.5570
       YYY       0.0069    XXZ       0.0088    XYZ       0.0015
       YYZ       0.0099    XZZ       1.9002    YZZ       0.0020
       ZZZ       0.0471
    Hexadecapole Moments (Debye-Ang^3)
      XXXX    -306.9130   XXXY      -0.0054   XXYY     -90.8179
      XYYY      -0.0095   YYYY    -200.6063   XXXZ      -0.0899
      XXYZ       0.0015   XYYZ      -0.0115   YYYZ      -0.0042
      XXZZ     -56.1246   XYZZ      -0.0021   YYZZ     -43.4101
      XZZZ      -0.0407   YZZZ       0.0049   ZZZZ     -49.3074
 -----------------------------------------------------------------
 Calculating analytic gradient of the SCF energy
 Gradient of SCF Energy
            1           2           3           4           5           6
    1  -0.0002929  -0.0000849   0.0000670   0.0000710   0.0001137   0.0001144
    2  -0.0000035  -0.0000038   0.0000147  -0.0000153  -0.0001452  -0.0001473
    3   0.0000109   0.0000006  -0.0000057   0.0000044  -0.0001413   0.0001505
            7           8           9          10
    1  -0.0001020  -0.0001126   0.0001116   0.0001147
    2  -0.0001493   0.0001457   0.0001511   0.0001528
    3  -0.0000100  -0.0000104  -0.0001462   0.0001471
 Max gradient component =       2.929E-04
 RMS gradient           =       1.149E-04
 Gradient time:  CPU 8.35 s  wall 0.64 s
 Geometry Optimization Parameters
   NAtoms,    NIC,     NZ,  NCons,   NDum,   NFix, NCnnct, MaxDiis
       10      56       0       1       0       0       0       0


** CONSTRAINED OPTIMIZATION IN DELOCALIZED INTERNAL COORDINATES **
   Searching for a Minimum

   Optimization Cycle:   1

                       Coordinates (Angstroms)
     ATOM                X               Y               Z
      1  S        -1.3809800000   -0.0002200000   -0.0009700000
      2  C         0.2579400000   -0.0000200000   -0.0004700000
      3  C         1.0691500000    1.2690800000    0.0001500000
      4  C         1.0694100000   -1.2689400000    0.0001700000
      5  H         1.7254300000    1.2948900000    0.8802200000
      6  H         1.7319200000    1.2922900000   -0.8750600000
      7  H         0.4342900000    2.1544400000   -0.0033200000
      8  H         0.4346900000   -2.1544200000   -0.0019200000
      9  H         1.7268900000   -1.2939500000    0.8793500000
     10  H         1.7309900000   -1.2925800000   -0.8759400000
   Point Group: c1    Number of degrees of freedom:    24


   Energy is   -516.118778633

              Constraints and their Current Values
                                        Value     Constraint
   Distance(Angs):        1   2             1.638920     1.250000

 Attempting to Generate Delocalized Internal Coordinates
**WARNING** Constraint Gradient Reduced for constraint   1

   Using Lagrange Multiplier Algorithm


 25 Hessian modes will be used to form the next step
  Hessian Eigenvalues:
    -0.802452    0.045000    0.045000    0.045000    0.092945    0.092948
     0.095814    0.095817    0.160000    0.160000    0.160000    0.160000
     0.160000    0.160000    0.250000    0.250000    0.317342    0.317354
     0.338896    0.338911    0.338935    0.338945    0.348738    0.348752
     1.246180

 Minimum Search - Taking P-RFO Step
 Searching for Lamda that Maximizes Along the Constraint modes Only
 Value Taken    Lamda =   0.06314819


 ********************************************
 ** ERROR IN DETERMINING Lamda IN CONFormD **
 ********************************************


 ** Scaling Hessian by  2.806586 **


 25 Hessian modes will be used to form the next step
  Hessian Eigenvalues:
    -0.555340    0.126296    0.126296    0.126296    0.260859    0.260867
     0.268910    0.268920    0.449054    0.449054    0.449054    0.449054
     0.449054    0.449054    0.701646    0.701647    0.890647    0.890680
     0.951141    0.951183    0.951251    0.951280    0.978762    0.978803
     1.800699

 Minimum Search - Taking P-RFO Step
 Searching for Lamda that Maximizes Along the Constraint modes Only
 Value Taken    Lamda =   0.10418372
 Searching for Lamda that Minimizes Along All other modes
 Value Taken    Lamda =  -0.01174796
 Step Taken.  Stepsize is  0.263349

                             Maximum     Tolerance    Cnvgd?
         Gradient            0.300000       0.000300      NO
         Displacement        0.308384       0.001200      NO
         Energy change     *********       0.000001      NO


 New Cartesian Coordinates Obtained by Inverse Iteration

 Displacement from previous Coordinates is:  0.251093
 ----------------------------------------------------------------
             Standard Nuclear Orientation (Angstroms)
    I     Atom           X                Y                Z
 ----------------------------------------------------------------
    1      S      -1.2549538572    -0.0001892450    -0.0009525985
    2      C       0.2446124131    -0.0000174470    -0.0004868999
    3      C       1.0552279167     1.2696402638     0.0001457099
    4      C       1.0554908388    -1.2695009796     0.0001636008
    5      H       1.7113247424     1.2960965822     0.8803663434
    6      H       1.7177839500     1.2935426444    -0.8752449444
    7      H       0.4200885453     2.1548407603    -0.0032793479
    8      H       0.4205055580    -2.1548255839    -0.0018843652
    9      H       1.7127848479    -1.2951717162     0.8795005066
   10      H       1.7168650452    -1.2938452790    -0.8761180048
 ----------------------------------------------------------------
 Nuclear Repulsion Energy =   157.3503946317 hartrees
 There are       20 alpha and       20 beta electrons

                       Distance Matrix (Angstroms)
             S (  1)   C (  2)   C (  3)   C (  4)   H (  5)   H (  6)
   C (  2)  1.499566
   C (  3)  2.636173  1.506363
   C (  4)  2.636154  1.506357  2.539141
   H (  5)  3.354980  2.146406  1.098158  2.790549
   H (  6)  3.357871  2.146796  1.098117  2.788219  1.755625
   H (  7)  2.729455  2.161993  1.089492  3.482795  1.784814  1.784985
   H (  8)  2.729400  2.161976  3.482792  1.089500  3.788594  3.786414
   H (  9)  3.355540  2.146470  2.789965  1.098147  2.591269  3.127395
   H ( 10)  3.357256  2.146683  2.788738  1.098125  3.129388  2.587388
             H (  7)   H (  8)   H (  9)
   H (  8)  4.309667
   H (  9)  3.788529  1.784889
   H ( 10)  3.786411  1.784970  1.755624
 
 Applying Cartesian multipole field
    Component          Value
    ---------          -----
     (2,0,0)        1.00000E-11
     (0,2,0)        2.00000E-11
     (0,0,2)       -3.00000E-10
 Nucleus-field energy     =     0.0000000010 hartrees
 Requested basis set is 6-31G(d,p)
 There are 35 shells and 94 basis functions
 A cutoff of  1.0D-14 yielded    620 shell pairs
 There are      4567 function pairs
 Smallest overlap matrix eigenvalue = 6.89E-03
 Guess from superposition of atomic densities
 Warning:  Energy on first SCF cycle will be non-variational
 SAD guess density has 40.000000 electrons

 -----------------------------------------------------------------------
  General SCF calculation program by
  Eric Jon Sundstrom, Paul Horn, Yuezhi Mao, Dmitri Zuev, Alec White,
  David Stuck, Shaama M.S., Shane Yost, Joonho Lee, David Small,
  Daniel Levine, Susi Lehtola, Hugh Burton, Evgeny Epifanovsky
 -----------------------------------------------------------------------
 Exchange:     0.2000 Hartree-Fock + 0.0800 Slater + 0.7200 B88
 Correlation:  0.1900 VWN1RPA + 0.8100 LYP
 Using SG-1 standard quadrature grid
 using 16 threads for integral computing
 -------------------------------------------------------
 OpenMP Integral computing Module                
 Release: version 1.0, May 2013, Q-Chem Inc. Pittsburgh 
 -------------------------------------------------------
 -------------------------------------------------------
 OpenMP BLAS3 based DFT computing Module                
 Release: version 1.0, May 2013, Q-Chem Inc. Pittsburgh 
 -------------------------------------------------------
 A unrestricted SCF calculation will be
 performed using DIIS
 SCF converges when DIIS error is below 1.0e-06
 Alpha HF Exchange    Energy =  -4.30730710153623
 Beta HF Exchange     Energy =  -4.30730710153623
 DFT Correlation      Energy =  -1.81201900024078
 DFT Exchange         Energy = -33.56657615054590
 One-Electron (alpha) Energy = -508.10530042984851
 One-Electron (beta)  Energy = -508.10530042984851
 Total Coulomb        Energy = 386.02880784689108
 ---------------------------------------
  Cycle       Energy         DIIS error
 ---------------------------------------
    1    -516.8246077340      3.61e-02  
 Alpha HF Exchange    Energy =  -4.30184505894338
 Beta HF Exchange     Energy =  -4.30184505894338
 DFT Correlation      Energy =  -1.83978042654204
 DFT Exchange         Energy = -34.13497611101596
 One-Electron (alpha) Energy = -511.70681666901049
 One-Electron (beta)  Energy = -511.70681666901027
 Total Coulomb        Energy = 394.61853821325894
    2    -516.0231471475      4.04e-03  
 Alpha HF Exchange    Energy =  -4.24816136479606
 Beta HF Exchange     Energy =  -4.24816136479607
 DFT Correlation      Energy =  -1.81349149787375
 DFT Exchange         Energy = -33.67939898143629
 One-Electron (alpha) Energy = -508.05027761890960
 One-Electron (beta)  Energy = -508.05027761890989
 Total Coulomb        Energy = 386.73620754886599
    3    -516.0031662652      4.51e-03  
 Alpha HF Exchange    Energy =  -4.27275110417331
 Beta HF Exchange     Energy =  -4.27275110417331
 DFT Correlation      Energy =  -1.82710805301512
 DFT Exchange         Energy = -33.89019308057016
 One-Electron (alpha) Energy = -509.84330735753696
 One-Electron (beta)  Energy = -509.84330735753701
 Total Coulomb        Energy = 390.50382497720352
    4    -516.0951984471      1.09e-03  
 Alpha HF Exchange    Energy =  -4.27371418499535
 Beta HF Exchange     Energy =  -4.27371418499535
 DFT Correlation      Energy =  -1.82684801686456
 DFT Exchange         Energy = -33.89561787372283
 One-Electron (alpha) Energy = -509.88340718349906
 One-Electron (beta)  Energy = -509.88340718349929
 Total Coulomb        Energy = 390.58531973113020
    5    -516.1009942637      1.44e-04  
 Alpha HF Exchange    Energy =  -4.27388246150840
 Beta HF Exchange     Energy =  -4.27388246150841
 DFT Correlation      Energy =  -1.82691656400659
 DFT Exchange         Energy = -33.89723261132883
 One-Electron (alpha) Energy = -509.90808918831135
 One-Electron (beta)  Energy = -509.90808918831135
 Total Coulomb        Energy = 390.63662943372520
    6    -516.1010684086      5.28e-05  
 Alpha HF Exchange    Energy =  -4.27368784772446
 Beta HF Exchange     Energy =  -4.27368784772446
 DFT Correlation      Energy =  -1.82684384305380
 DFT Exchange         Energy = -33.89559774177329
 One-Electron (alpha) Energy = -509.88491788749587
 One-Electron (beta)  Energy = -509.88491788749576
 Total Coulomb        Energy = 390.58817708187814
    7    -516.1010813407      8.96e-06  
 Alpha HF Exchange    Energy =  -4.27372106909784
 Beta HF Exchange     Energy =  -4.27372106909783
 DFT Correlation      Energy =  -1.82685789456367
 DFT Exchange         Energy = -33.89586143002252
 One-Electron (alpha) Energy = -509.88921228916064
 One-Electron (beta)  Energy = -509.88921228916030
 Total Coulomb        Energy = 390.59710965669001
    8    -516.1010817517      6.17e-07  Convergence criterion met
 ---------------------------------------
 SCF time:   CPU 25.78s  wall 2.00s 
<S^2> =          0.000000000
 Alpha HF Exchange    Energy =  -4.27372106909784
 Beta HF Exchange     Energy =  -4.27372106909783
 DFT Correlation      Energy =  -1.82685789456367
 DFT Exchange         Energy = -33.89586143002252
 One-Electron (alpha) Energy = -509.88921228916064
 One-Electron (beta)  Energy = -509.88921228916030
 Total Coulomb        Energy = 390.59710965669001
 Nuclear repulsion Energy = 157.35039463269757
 SCF   energy in the final basis set =     -516.1010817517
 Total energy in the final basis set =     -516.1010817517
 
 --------------------------------------------------------------
 
                    Orbital Energies (a.u.)
 --------------------------------------------------------------
 
 Alpha MOs
 -- Occupied --
-88.845 -10.247 -10.194 -10.194  -7.914  -5.877  -5.877  -5.868
 -0.854  -0.717  -0.709  -0.518  -0.453  -0.446  -0.439  -0.400
 -0.373  -0.362  -0.302  -0.212
 -- Virtual --
 -0.053   0.083   0.122   0.149   0.152   0.159   0.171   0.172
  0.223   0.229   0.318   0.359   0.443   0.484   0.510   0.511
  0.549   0.595   0.598   0.679   0.683   0.712   0.747   0.761
  0.799   0.806   0.857   0.881   0.885   0.898   0.909   0.945
  0.945   1.097   1.178   1.300   1.320   1.414   1.512   1.676
  1.735   1.824   1.865   1.907   1.949   2.021   2.028   2.055
  2.066   2.089   2.093   2.175   2.308   2.379   2.383   2.504
  2.588   2.620   2.698   2.699   2.808   2.859   2.897   2.949
  3.165   3.211   3.387   3.403   3.425   3.468   3.985   4.190
  4.476   4.553
 
 Beta MOs
 -- Occupied --
-88.845 -10.247 -10.194 -10.194  -7.914  -5.877  -5.877  -5.868
 -0.854  -0.717  -0.709  -0.518  -0.453  -0.446  -0.439  -0.400
 -0.373  -0.362  -0.302  -0.212
 -- Virtual --
 -0.053   0.083   0.122   0.149   0.152   0.159   0.171   0.172
  0.223   0.229   0.318   0.359   0.443   0.484   0.510   0.511
  0.549   0.595   0.598   0.679   0.683   0.712   0.747   0.761
  0.799   0.806   0.857   0.881   0.885   0.898   0.909   0.945
  0.945   1.097   1.178   1.300   1.320   1.414   1.512   1.676
  1.735   1.824   1.865   1.907   1.949   2.021   2.028   2.055
  2.066   2.089   2.093   2.175   2.308   2.379   2.383   2.504
  2.588   2.620   2.698   2.699   2.808   2.859   2.897   2.949
  3.165   3.211   3.387   3.403   3.425   3.468   3.985   4.190
  4.476   4.553
 --------------------------------------------------------------
 
          Ground-State Mulliken Net Atomic Charges

     Atom                 Charge (a.u.)    Spin (a.u.)
  --------------------------------------------------------
      1 S                    -0.126652       0.000000
      2 C                     0.020088      -0.000000
      3 C                    -0.335968       0.000000
      4 C                    -0.335963       0.000000
      5 H                     0.125579       0.000000
      6 H                     0.125374       0.000000
      7 H                     0.138295      -0.000000
      8 H                     0.138294       0.000000
      9 H                     0.125535      -0.000000
     10 H                     0.125419      -0.000000
  --------------------------------------------------------
  Sum of atomic charges =     0.000000
  Sum of spin   charges =     0.000000

 -----------------------------------------------------------------
                    Cartesian Multipole Moments
 -----------------------------------------------------------------
    Charge (ESU x 10^10)
                -0.0000
    Dipole Moment (Debye)
         X       2.5810      Y       0.0003      Z       0.0026
       Tot       2.5810
    Quadrupole Moments (Debye-Ang)
        XX     -33.0334     XY      -0.0001     YY     -32.1390
        XZ       0.0006     YZ       0.0006     ZZ     -31.7334
    Octopole Moments (Debye-Ang^2)
       XXX      -1.3434    XXY       0.0012    XYY       1.2407
       YYY       0.0052    XXZ       0.0084    XYZ       0.0014
       YYZ       0.0094    XZZ      -0.1809    YZZ       0.0015
       ZZZ       0.0445
    Hexadecapole Moments (Debye-Ang^3)
      XXXX    -280.2116   XXXY      -0.0030   XXYY     -86.2176
      XYYY      -0.0066   YYYY    -202.5055   XXXZ      -0.0836
      XXYZ       0.0013   XYYZ      -0.0101   YYYZ      -0.0042
      XXZZ     -51.0787   XYZZ      -0.0011   YYZZ     -43.4710
      XZZZ      -0.0352   YZZZ       0.0046   ZZZZ     -48.2268
 -----------------------------------------------------------------
 Calculating analytic gradient of the SCF energy
 Gradient of SCF Energy
            1           2           3           4           5           6
    1   0.1518624  -0.1330498  -0.0092701  -0.0092680  -0.0001472  -0.0001465
    2   0.0000150  -0.0000170  -0.0015629   0.0015588  -0.0007479  -0.0007583
    3   0.0000616  -0.0000414  -0.0000162  -0.0000060   0.0001411  -0.0001302
            7           8           9          10
    1   0.0001604   0.0001534  -0.0001485  -0.0001461
    2   0.0000948  -0.0000966   0.0007538   0.0007603
    3  -0.0000054  -0.0000069   0.0001366  -0.0001333
 Max gradient component =       1.519E-01
 RMS gradient           =       3.694E-02
 Gradient time:  CPU 8.29 s  wall 0.64 s
 Geometry Optimization Parameters
   NAtoms,    NIC,     NZ,  NCons,   NDum,   NFix, NCnnct, MaxDiis
       10      56       0       1       0       0       0       0

 Cartesian Hessian Update
 Hessian Updated using BFGS Update


** CONSTRAINED OPTIMIZATION IN DELOCALIZED INTERNAL COORDINATES **
   Searching for a Minimum

   Optimization Cycle:   2

                       Coordinates (Angstroms)
     ATOM                X               Y               Z
      1  S        -1.2549538572   -0.0001892450   -0.0009525985
      2  C         0.2446124131   -0.0000174470   -0.0004868999
      3  C         1.0552279167    1.2696402638    0.0001457099
      4  C         1.0554908388   -1.2695009796    0.0001636008
      5  H         1.7113247424    1.2960965822    0.8803663434
      6  H         1.7177839500    1.2935426444   -0.8752449444
      7  H         0.4200885453    2.1548407603   -0.0032793479
      8  H         0.4205055580   -2.1548255839   -0.0018843652
      9  H         1.7127848479   -1.2951717162    0.8795005066
     10  H         1.7168650452   -1.2938452790   -0.8761180048
   Point Group: c1    Number of degrees of freedom:    24


   Energy is   -516.101081752

              Constraints and their Current Values
                                        Value     Constraint
   Distance(Angs):        1   2             1.499566     1.250000
 Hessian Updated using BFGS Update
**WARNING** Constraint Gradient Reduced for constraint   1

   Using Lagrange Multiplier Algorithm


 21 Hessian modes will be used to form the next step
  Hessian Eigenvalues:
    -0.753044    0.126296    0.126296    0.126296    0.260859    0.260867
     0.268912    0.268923    0.449051    0.449185    0.701646    0.704517
     0.890663    0.891293    0.951141    0.951183    0.951251    0.951280
     0.978762    0.978803    1.334628

 Minimum Search - Taking P-RFO Step
 Searching for Lamda that Maximizes Along the Constraint modes Only
 Value Taken    Lamda =   0.02695996
 Searching for Lamda that Minimizes Along All other modes
 Value Taken    Lamda =  -0.06801002
 Step Taken.  Stepsize is  0.290285

                             Maximum     Tolerance    Cnvgd?
         Gradient            0.300000       0.000300      NO
         Displacement        0.286943       0.001200      NO
         Energy change      0.017697       0.000001      NO


 New Cartesian Coordinates Obtained by Inverse Iteration

 Displacement from previous Coordinates is:  0.239236
 ----------------------------------------------------------------
             Standard Nuclear Orientation (Angstroms)
    I     Atom           X                Y                Z
 ----------------------------------------------------------------
    1      S      -1.1389009875    -0.0001576733    -0.0009579362
    2      C       0.2088217331    -0.0000160924    -0.0005164997
    3      C       1.0423527828     1.2652086365     0.0001454044
    4      C       1.0426176575    -1.2650682621     0.0001596997
    5      H       1.6993899216     1.2874243889     0.8797719722
    6      H       1.7057759918     1.2848920821    -0.8746951476
    7      H       0.4167601698     2.1572033135    -0.0032205202
    8      H       0.4171986127    -2.1571907920    -0.0018297424
    9      H       1.7008392149    -1.2865083373     0.8789122372
   10      H       1.7048749032    -1.2852172640    -0.8755594673
 ----------------------------------------------------------------
 Nuclear Repulsion Energy =   163.3125451045 hartrees
 There are       20 alpha and       20 beta electrons

                       Distance Matrix (Angstroms)
             S (  1)   C (  2)   C (  3)   C (  4)   H (  5)   H (  6)
   C (  2)  1.347723
   C (  3)  2.521710  1.515113
   C (  4)  2.521710  1.515115  2.530277
   H (  5)  3.238742  2.157360  1.098150  2.778540
   H (  6)  3.241444  2.157788  1.098118  2.776229  1.754481
   H (  7)  2.659754  2.167220  1.089510  3.479030  1.783628  1.783804
   H (  8)  2.659744  2.167216  3.479029  1.089512  3.779763  3.777600
   H (  9)  3.239289  2.157446  2.777966  1.098144  2.573933  3.112437
   H ( 10)  3.240890  2.157688  2.776773  1.098123  3.114435  2.570110
             H (  7)   H (  8)   H (  9)
   H (  8)  4.314394
   H (  9)  3.779705  1.783684
   H ( 10)  3.777628  1.783775  1.754477
 
 Applying Cartesian multipole field
    Component          Value
    ---------          -----
     (2,0,0)        1.00000E-11
     (0,2,0)        2.00000E-11
     (0,0,2)       -3.00000E-10
 Nucleus-field energy     =     0.0000000009 hartrees
 Requested basis set is 6-31G(d,p)
 There are 35 shells and 94 basis functions
 A cutoff of  1.0D-14 yielded    620 shell pairs
 There are      4567 function pairs
 Smallest overlap matrix eigenvalue = 6.64E-03
 Guess from superposition of atomic densities
 Warning:  Energy on first SCF cycle will be non-variational
 SAD guess density has 40.000000 electrons

 -----------------------------------------------------------------------
  General SCF calculation program by
  Eric Jon Sundstrom, Paul Horn, Yuezhi Mao, Dmitri Zuev, Alec White,
  David Stuck, Shaama M.S., Shane Yost, Joonho Lee, David Small,
  Daniel Levine, Susi Lehtola, Hugh Burton, Evgeny Epifanovsky
 -----------------------------------------------------------------------
 Exchange:     0.2000 Hartree-Fock + 0.0800 Slater + 0.7200 B88
 Correlation:  0.1900 VWN1RPA + 0.8100 LYP
 Using SG-1 standard quadrature grid
 using 16 threads for integral computing
 -------------------------------------------------------
 OpenMP Integral computing Module                
 Release: version 1.0, May 2013, Q-Chem Inc. Pittsburgh 
 -------------------------------------------------------
 -------------------------------------------------------
 OpenMP BLAS3 based DFT computing Module                
 Release: version 1.0, May 2013, Q-Chem Inc. Pittsburgh 
 -------------------------------------------------------
 A unrestricted SCF calculation will be
 performed using DIIS
 SCF converges when DIIS error is below 1.0e-06
 Alpha HF Exchange    Energy =  -4.33114417265347
 Beta HF Exchange     Energy =  -4.33114417265347
 DFT Correlation      Energy =  -1.81701510049587
 DFT Exchange         Energy = -33.61955497995444
 One-Electron (alpha) Energy = -513.82736683632538
 One-Electron (beta)  Energy = -513.82736683632538
 Total Coulomb        Energy = 391.34937478408074
 ---------------------------------------
  Cycle       Energy         DIIS error
 ---------------------------------------
    1    -517.0916722090      4.08e-02  
 Alpha HF Exchange    Energy =  -4.31836018078063
 Beta HF Exchange     Energy =  -4.31836018078063
 DFT Correlation      Energy =  -1.84767857493481
 DFT Exchange         Energy = -34.26063502080090
 One-Electron (alpha) Energy = -517.92306691128772
 One-Electron (beta)  Energy = -517.92306691128772
 Total Coulomb        Energy = 401.36250017280469
    2    -515.9161225017      4.60e-03  
 Alpha HF Exchange    Energy =  -4.25522422352958
 Beta HF Exchange     Energy =  -4.25522422352959
 DFT Correlation      Energy =  -1.81657666573299
 DFT Exchange         Energy = -33.72542944583049
 One-Electron (alpha) Energy = -513.32561618613647
 One-Electron (beta)  Energy = -513.32561618613681
 Total Coulomb        Energy = 391.53824687986923
    3    -515.8528949457      5.81e-03  
 Alpha HF Exchange    Energy =  -4.28440113680509
 Beta HF Exchange     Energy =  -4.28440113680509
 DFT Correlation      Energy =  -1.83279450257601
 DFT Exchange         Energy = -33.97464172376125
 One-Electron (alpha) Energy = -515.67829799572280
 One-Electron (beta)  Energy = -515.67829799572280
 Total Coulomb        Energy = 396.40877856527709
    4    -516.0115108208      1.06e-03  
 Alpha HF Exchange    Energy =  -4.28642698746502
 Beta HF Exchange     Energy =  -4.28642698746502
 DFT Correlation      Energy =  -1.83310727198533
 DFT Exchange         Energy = -33.98964728869002
 One-Electron (alpha) Energy = -515.77242051945268
 One-Electron (beta)  Energy = -515.77242051945257
 Total Coulomb        Energy = 396.61127545278282
    5    -516.0166290164      1.62e-04  
 Alpha HF Exchange    Energy =  -4.28619196567051
 Beta HF Exchange     Energy =  -4.28619196567051
 DFT Correlation      Energy =  -1.83296097489578
 DFT Exchange         Energy = -33.98776336780713
 One-Electron (alpha) Energy = -515.76436739835162
 One-Electron (beta)  Energy = -515.76436739835140
 Total Coulomb        Energy = 396.59257243506568
    6    -516.0167255304      5.42e-05  
 Alpha HF Exchange    Energy =  -4.28605432503799
 Beta HF Exchange     Energy =  -4.28605432503799
 DFT Correlation      Energy =  -1.83292405674559
 DFT Exchange         Energy = -33.98663679420945
 One-Electron (alpha) Energy = -515.74605757721201
 One-Electron (beta)  Energy = -515.74605757721201
 Total Coulomb        Energy = 396.55450177306761
    7    -516.0167377771      1.18e-05  
 Alpha HF Exchange    Energy =  -4.28609534265739
 Beta HF Exchange     Energy =  -4.28609534265739
 DFT Correlation      Energy =  -1.83294020152605
 DFT Exchange         Energy = -33.98696125488686
 One-Electron (alpha) Energy = -515.75150178238482
 One-Electron (beta)  Energy = -515.75150178238493
 Total Coulomb        Energy = 396.56581211952812
    8    -516.0167384816      8.30e-07  Convergence criterion met
 ---------------------------------------
 SCF time:   CPU 25.58s  wall 1.00s 
<S^2> =          0.000000000
 Alpha HF Exchange    Energy =  -4.28609534265739
 Beta HF Exchange     Energy =  -4.28609534265739
 DFT Correlation      Energy =  -1.83294020152605
 DFT Exchange         Energy = -33.98696125488686
 One-Electron (alpha) Energy = -515.75150178238482
 One-Electron (beta)  Energy = -515.75150178238493
 Total Coulomb        Energy = 396.56581211952812
 Nuclear repulsion Energy = 163.31254510532438
 SCF   energy in the final basis set =     -516.0167384816
 Total energy in the final basis set =     -516.0167384816
 
 --------------------------------------------------------------
 
                    Orbital Energies (a.u.)
 --------------------------------------------------------------
 
 Alpha MOs
 -- Occupied --
-88.832 -10.226 -10.186 -10.186  -7.913  -5.875  -5.874  -5.866
 -0.887  -0.723  -0.704  -0.507  -0.454  -0.454  -0.432  -0.394
 -0.370  -0.369  -0.327  -0.204
 -- Virtual --
 -0.034   0.085   0.140   0.153   0.154   0.163   0.166   0.176
  0.222   0.222   0.319   0.348   0.457   0.503   0.522   0.546
  0.549   0.606   0.622   0.662   0.696   0.724   0.762   0.774
  0.791   0.795   0.864   0.887   0.889   0.900   0.915   0.950
  0.953   1.126   1.219   1.312   1.425   1.532   1.549   1.664
  1.748   1.826   1.873   1.949   2.016   2.026   2.034   2.061
  2.092   2.098   2.101   2.201   2.324   2.394   2.418   2.499
  2.610   2.667   2.705   2.721   2.811   2.872   2.906   2.974
  3.168   3.221   3.393   3.409   3.432   3.473   3.989   4.227
  4.483   4.592
 
 Beta MOs
 -- Occupied --
-88.832 -10.226 -10.186 -10.186  -7.913  -5.875  -5.874  -5.866
 -0.887  -0.723  -0.704  -0.507  -0.454  -0.454  -0.432  -0.394
 -0.370  -0.369  -0.327  -0.204
 -- Virtual --
 -0.034   0.085   0.140   0.153   0.154   0.163   0.166   0.176
  0.222   0.222   0.319   0.348   0.457   0.503   0.522   0.546
  0.549   0.606   0.622   0.662   0.696   0.724   0.762   0.774
  0.791   0.795   0.864   0.887   0.889   0.900   0.915   0.950
  0.953   1.126   1.219   1.312   1.425   1.532   1.549   1.664
  1.748   1.826   1.873   1.949   2.016   2.026   2.034   2.061
  2.092   2.098   2.101   2.201   2.324   2.394   2.418   2.499
  2.610   2.667   2.705   2.721   2.811   2.872   2.906   2.974
  3.168   3.221   3.393   3.409   3.432   3.473   3.989   4.227
  4.483   4.592
 --------------------------------------------------------------
 
          Ground-State Mulliken Net Atomic Charges

     Atom                 Charge (a.u.)    Spin (a.u.)
  --------------------------------------------------------
      1 S                    -0.108550      -0.000000
      2 C                     0.061201       0.000000
      3 C                    -0.344387      -0.000000
      4 C                    -0.344385       0.000000
      5 H                     0.119845       0.000000
      6 H                     0.119668      -0.000000
      7 H                     0.128547      -0.000000
      8 H                     0.128547      -0.000000
      9 H                     0.119805      -0.000000
     10 H                     0.119708      -0.000000
  --------------------------------------------------------
  Sum of atomic charges =     0.000000
  Sum of spin   charges =    -0.000000

 -----------------------------------------------------------------
                    Cartesian Multipole Moments
 -----------------------------------------------------------------
    Charge (ESU x 10^10)
                -0.0000
    Dipole Moment (Debye)
         X       2.0613      Y       0.0002      Z       0.0023
       Tot       2.0613
    Quadrupole Moments (Debye-Ang)
        XX     -32.9980     XY      -0.0001     YY     -32.3081
        XZ       0.0003     YZ       0.0005     ZZ     -31.2180
    Octopole Moments (Debye-Ang^2)
       XXX      -6.0490    XXY       0.0008    XYY      -0.8979
       YYY       0.0035    XXZ       0.0084    XYZ       0.0013
       YYZ       0.0093    XZZ      -2.0962    YZZ       0.0010
       ZZZ       0.0422
    Hexadecapole Moments (Debye-Ang^3)
      XXXX    -258.1406   XXXY      -0.0010   XXYY     -82.4274
      XYYY      -0.0042   YYYY    -203.9769   XXXZ      -0.0792
      XXYZ       0.0012   XYYZ      -0.0099   YYYZ      -0.0041
      XXZZ     -46.8712   XYZZ      -0.0003   YYZZ     -43.3950
      XZZZ      -0.0319   YZZZ       0.0043   ZZZZ     -46.8760
 -----------------------------------------------------------------
 Calculating analytic gradient of the SCF energy
 Gradient of SCF Energy
            1           2           3           4           5           6
    1   0.4836235  -0.4502591  -0.0174465  -0.0174458   0.0000394   0.0000410
    2   0.0000506  -0.0000471  -0.0033443   0.0033371  -0.0009303  -0.0009455
    3   0.0001771  -0.0001516  -0.0000236  -0.0000148   0.0002180  -0.0002067
            7           8           9          10
    1   0.0006845   0.0006823   0.0000393   0.0000415
    2  -0.0000418   0.0000420   0.0009348   0.0009445
    3  -0.0000008  -0.0000034   0.0002146  -0.0002089
 Max gradient component =       4.836E-01
 RMS gradient           =       1.207E-01
 Gradient time:  CPU 8.29 s  wall 0.64 s
 Geometry Optimization Parameters
   NAtoms,    NIC,     NZ,  NCons,   NDum,   NFix, NCnnct, MaxDiis
       10      56       0       1       0       0       0       0

 Cartesian Hessian Update
 Hessian Updated using BFGS Update


** CONSTRAINED OPTIMIZATION IN DELOCALIZED INTERNAL COORDINATES **
   Searching for a Minimum

   Optimization Cycle:   3

                       Coordinates (Angstroms)
     ATOM                X               Y               Z
      1  S        -1.1389009875   -0.0001576733   -0.0009579362
      2  C         0.2088217331   -0.0000160924   -0.0005164997
      3  C         1.0423527828    1.2652086365    0.0001454044
      4  C         1.0426176575   -1.2650682621    0.0001596997
      5  H         1.6993899216    1.2874243889    0.8797719722
      6  H         1.7057759918    1.2848920821   -0.8746951476
      7  H         0.4167601698    2.1572033135   -0.0032205202
      8  H         0.4171986127   -2.1571907920   -0.0018297424
      9  H         1.7008392149   -1.2865083373    0.8789122372
     10  H         1.7048749032   -1.2852172640   -0.8755594673
   Point Group: c1    Number of degrees of freedom:    24


   Energy is   -516.016738482

              Constraints and their Current Values
                                        Value     Constraint
   Distance(Angs):        1   2             1.347723     1.250000
 Hessian Updated using BFGS Update

   Using Lagrange Multiplier Algorithm


 25 Hessian modes will be used to form the next step
  Hessian Eigenvalues:
    -0.575735    0.126296    0.126296    0.126296    0.260859    0.260867
     0.268903    0.268917    0.449018    0.449054    0.449054    0.449054
     0.449054    0.449065    0.697182    0.701646    0.885064    0.890664
     0.951141    0.951183    0.951251    0.951280    0.978762    0.978803
     1.771177

 Minimum Search - Taking P-RFO Step
 Searching for Lamda that Maximizes Along the Constraint modes Only
 Value Taken    Lamda =   0.08539619
 Searching for Lamda that Minimizes Along All other modes
 Value Taken    Lamda =  -0.00343037
 Step Taken.  Stepsize is  0.175520

                             Maximum     Tolerance    Cnvgd?
         Gradient            0.184669       0.000300      NO
         Displacement        0.319174       0.001200      NO
         Energy change      0.084343       0.000001      NO


 New Cartesian Coordinates Obtained by Inverse Iteration

 Displacement from previous Coordinates is:  0.138105
 ----------------------------------------------------------------
             Standard Nuclear Orientation (Angstroms)
    I     Atom           X                Y                Z
 ----------------------------------------------------------------
    1      S      -1.0992787940    -0.0001462267    -0.0010131891
    2      C       0.1647561406    -0.0000178071    -0.0005535041
    3      C       1.0385062618     1.2563313014     0.0001522104
    4      C       1.0387699412    -1.2561877336     0.0001631458
    5      H       1.6962407235     1.2695740873     0.8792400055
    6      H       1.7025297226     1.2670464588    -0.8742005397
    7      H       0.4292212032     2.1599893369    -0.0031487757
    8      H       0.4296713800    -2.1599740196    -0.0017603272
    9      H       1.6976677138    -1.2686526829     0.8783878998
   10      H       1.7016457073    -1.2673927145    -0.8750569257
 ----------------------------------------------------------------
 Nuclear Repulsion Energy =   166.4710379866 hartrees
 There are       20 alpha and       20 beta electrons

                       Distance Matrix (Angstroms)
             S (  1)   C (  2)   C (  3)   C (  4)   H (  5)   H (  6)
   C (  2)  1.264035
   C (  3)  2.479690  1.530311
   C (  4)  2.479696  1.530315  2.512519
   H (  5)  3.194051  2.175166  1.097992  2.754000
   H (  6)  3.196618  2.175651  1.097968  2.751690  1.753454
   H (  7)  2.646224  2.176139  1.089879  3.470133  1.782355  1.782524
   H (  8)  2.646232  2.176142  3.470133  1.089878  3.760606  3.758429
   H (  9)  3.194584  2.175268  2.753423  1.097989  2.538227  3.082428
   H ( 10)  3.196098  2.175552  2.752259  1.097971  3.084443  2.534439
             H (  7)   H (  8)   H (  9)
   H (  8)  4.319964
   H (  9)  3.760538  1.782394
   H ( 10)  3.758488  1.782489  1.753450
 
 Applying Cartesian multipole field
    Component          Value
    ---------          -----
     (2,0,0)        1.00000E-11
     (0,2,0)        2.00000E-11
     (0,0,2)       -3.00000E-10
 Nucleus-field energy     =     0.0000000008 hartrees
 Requested basis set is 6-31G(d,p)
 There are 35 shells and 94 basis functions
 A cutoff of  1.0D-14 yielded    620 shell pairs
 There are      4567 function pairs
 Smallest overlap matrix eigenvalue = 5.95E-03
 Guess from superposition of atomic densities
 Warning:  Energy on first SCF cycle will be non-variational
 SAD guess density has 40.000000 electrons

 -----------------------------------------------------------------------
  General SCF calculation program by
  Eric Jon Sundstrom, Paul Horn, Yuezhi Mao, Dmitri Zuev, Alec White,
  David Stuck, Shaama M.S., Shane Yost, Joonho Lee, David Small,
  Daniel Levine, Susi Lehtola, Hugh Burton, Evgeny Epifanovsky
 -----------------------------------------------------------------------
 Exchange:     0.2000 Hartree-Fock + 0.0800 Slater + 0.7200 B88
 Correlation:  0.1900 VWN1RPA + 0.8100 LYP
 Using SG-1 standard quadrature grid
 using 16 threads for integral computing
 -------------------------------------------------------
 OpenMP Integral computing Module                
 Release: version 1.0, May 2013, Q-Chem Inc. Pittsburgh 
 -------------------------------------------------------
 -------------------------------------------------------
 OpenMP BLAS3 based DFT computing Module                
 Release: version 1.0, May 2013, Q-Chem Inc. Pittsburgh 
 -------------------------------------------------------
 A unrestricted SCF calculation will be
 performed using DIIS
 SCF converges when DIIS error is below 1.0e-06
 Alpha HF Exchange    Energy =  -4.34407635024477
 Beta HF Exchange     Energy =  -4.34407635024477
 DFT Correlation      Energy =  -1.81951410144308
 DFT Exchange         Energy = -33.65007931912023
 One-Electron (alpha) Energy = -516.77808084224660
 One-Electron (beta)  Energy = -516.77808084224660
 Total Coulomb        Energy = 394.00598252534814
 ---------------------------------------
  Cycle       Energy         DIIS error
 ---------------------------------------
    1    -517.2368872928      4.41e-02  
 Alpha HF Exchange    Energy =  -4.32897239527869
 Beta HF Exchange     Energy =  -4.32897239527869
 DFT Correlation      Energy =  -1.85211221938672
 DFT Exchange         Energy = -34.34436432532234
 One-Electron (alpha) Energy = -521.21416084355110
 One-Electron (beta)  Energy = -521.21416084355076
 Total Coulomb        Energy = 405.01494897164014
    2    -515.7967560634      5.13e-03  
 Alpha HF Exchange    Energy =  -4.25844965547336
 Beta HF Exchange     Energy =  -4.25844965547336
 DFT Correlation      Energy =  -1.81780888652734
 DFT Exchange         Energy = -33.74890266971789
 One-Electron (alpha) Energy = -515.94087737351128
 One-Electron (beta)  Energy = -515.94087737351117
 Total Coulomb        Energy = 393.79298911084913
    3    -515.7013385160      6.73e-03  
 Alpha HF Exchange    Energy =  -4.29162820101805
 Beta HF Exchange     Energy =  -4.29162820101805
 DFT Correlation      Energy =  -1.83590093409551
 DFT Exchange         Energy = -34.03041377802236
 One-Electron (alpha) Energy = -518.71845547284227
 One-Electron (beta)  Energy = -518.71845547284192
 Total Coulomb        Energy = 399.49989842883173
    4    -515.9155456436      9.56e-04  
 Alpha HF Exchange    Energy =  -4.29410631341735
 Beta HF Exchange     Energy =  -4.29410631341735
 DFT Correlation      Energy =  -1.83645140810473
 DFT Exchange         Energy = -34.04948434754681
 One-Electron (alpha) Energy = -518.83584182534150
 One-Electron (beta)  Energy = -518.83584182534128
 Total Coulomb        Energy = 399.75531743391326
    5    -515.9194766119      2.02e-04  
 Alpha HF Exchange    Energy =  -4.29351025847432
 Beta HF Exchange     Energy =  -4.29351025847433
 DFT Correlation      Energy =  -1.83614881370106
 DFT Exchange         Energy = -34.04460184677704
 One-Electron (alpha) Energy = -518.80209573537252
 One-Electron (beta)  Energy = -518.80209573537286
 Total Coulomb        Energy = 399.68129165080688
    6    -515.9196330100      6.06e-05  
 Alpha HF Exchange    Energy =  -4.29341921146194
 Beta HF Exchange     Energy =  -4.29341921146194
 DFT Correlation      Energy =  -1.83613952681947
 DFT Exchange         Energy = -34.04387566896441
 One-Electron (alpha) Energy = -518.78727747745234
 One-Electron (beta)  Energy = -518.78727747745245
 Total Coulomb        Energy = 399.65072303611942
    7    -515.9196475501      1.38e-05  
 Alpha HF Exchange    Energy =  -4.29346635928876
 Beta HF Exchange     Energy =  -4.29346635928876
 DFT Correlation      Energy =  -1.83615708472895
 DFT Exchange         Energy = -34.04424664433989
 One-Electron (alpha) Energy = -518.79354819848322
 One-Electron (beta)  Energy = -518.79354819848356
 Total Coulomb        Energy = 399.66374634378315
    8    -515.9196485135      1.14e-06  
 Alpha HF Exchange    Energy =  -4.29346863270567
 Beta HF Exchange     Energy =  -4.29346863270567
 DFT Correlation      Energy =  -1.83615838060111
 DFT Exchange         Energy = -34.04426223552067
 One-Electron (alpha) Energy = -518.79354957267651
 One-Electron (beta)  Energy = -518.79354957267674
 Total Coulomb        Energy = 399.66377051816198
    9    -515.9196485213      2.85e-07  Convergence criterion met
 ---------------------------------------
 SCF time:   CPU 29.13s  wall 2.00s 
<S^2> =          0.000000000
 Alpha HF Exchange    Energy =  -4.29346863270567
 Beta HF Exchange     Energy =  -4.29346863270567
 DFT Correlation      Energy =  -1.83615838060111
 DFT Exchange         Energy = -34.04426223552067
 One-Electron (alpha) Energy = -518.79354957267651
 One-Electron (beta)  Energy = -518.79354957267674
 Total Coulomb        Energy = 399.66377051816198
 Nuclear repulsion Energy = 166.47103798737467
 SCF   energy in the final basis set =     -515.9196485213
 Total energy in the final basis set =     -515.9196485213
 
 --------------------------------------------------------------
 
                    Orbital Energies (a.u.)
 --------------------------------------------------------------
 
 Alpha MOs
 -- Occupied --
-88.824 -10.217 -10.182 -10.182  -7.915  -5.878  -5.875  -5.866
 -0.906  -0.724  -0.699  -0.501  -0.459  -0.457  -0.428  -0.389
 -0.373  -0.366  -0.343  -0.199
 -- Virtual --
 -0.024   0.085   0.147   0.149   0.155   0.165   0.165   0.180
  0.218   0.218   0.317   0.342   0.464   0.510   0.527   0.544
  0.555   0.608   0.626   0.681   0.698   0.729   0.771   0.784
  0.788   0.798   0.869   0.891   0.899   0.903   0.919   0.954
  0.961   1.134   1.228   1.324   1.441   1.559   1.654   1.676
  1.748   1.824   1.880   1.965   2.030   2.038   2.060   2.064
  2.101   2.105   2.107   2.215   2.343   2.409   2.434   2.489
  2.620   2.700   2.714   2.744   2.810   2.880   2.908   2.992
  3.167   3.229   3.396   3.411   3.437   3.472   3.989   4.244
  4.489   4.615
 
 Beta MOs
 -- Occupied --
-88.824 -10.217 -10.182 -10.182  -7.915  -5.878  -5.875  -5.866
 -0.906  -0.724  -0.699  -0.501  -0.459  -0.457  -0.428  -0.389
 -0.373  -0.366  -0.343  -0.199
 -- Virtual --
 -0.024   0.085   0.147   0.149   0.155   0.165   0.165   0.180
  0.218   0.218   0.317   0.342   0.464   0.510   0.527   0.544
  0.555   0.608   0.626   0.681   0.698   0.729   0.771   0.784
  0.788   0.798   0.869   0.891   0.899   0.903   0.919   0.954
  0.961   1.134   1.228   1.324   1.441   1.559   1.654   1.676
  1.748   1.824   1.880   1.965   2.030   2.038   2.060   2.064
  2.101   2.105   2.107   2.215   2.343   2.409   2.434   2.489
  2.620   2.700   2.714   2.744   2.810   2.880   2.908   2.992
  3.167   3.229   3.396   3.411   3.437   3.472   3.989   4.244
  4.489   4.615
 --------------------------------------------------------------
 
          Ground-State Mulliken Net Atomic Charges

     Atom                 Charge (a.u.)    Spin (a.u.)
  --------------------------------------------------------
      1 S                    -0.070467       0.000000
      2 C                     0.067709      -0.000000
      3 C                    -0.353422      -0.000000
      4 C                    -0.353421       0.000000
      5 H                     0.117078       0.000000
      6 H                     0.116928       0.000000
      7 H                     0.120795       0.000000
      8 H                     0.120795      -0.000000
      9 H                     0.117043       0.000000
     10 H                     0.116963      -0.000000
  --------------------------------------------------------
  Sum of atomic charges =     0.000000
  Sum of spin   charges =    -0.000000

 -----------------------------------------------------------------
                    Cartesian Multipole Moments
 -----------------------------------------------------------------
    Charge (ESU x 10^10)
                 0.0000
    Dipole Moment (Debye)
         X       1.7549      Y       0.0002      Z       0.0021
       Tot       1.7549
    Quadrupole Moments (Debye-Ang)
        XX     -32.9675     XY      -0.0001     YY     -32.4887
        XZ      -0.0001     YZ       0.0005     ZZ     -30.9147
    Octopole Moments (Debye-Ang^2)
       XXX      -7.4442    XXY       0.0007    XYY      -1.7216
       YYY       0.0028    XXZ       0.0090    XYZ       0.0012
       YYZ       0.0100    XZZ      -2.8046    YZZ       0.0008
       ZZZ       0.0425
    Hexadecapole Moments (Debye-Ang^3)
      XXXX    -251.2874   XXXY      -0.0004   XXYY     -81.0992
      XYYY      -0.0036   YYYY    -203.9817   XXXZ      -0.0809
      XXYZ       0.0011   XYYZ      -0.0116   YYYZ      -0.0040
      XXZZ     -45.4353   XYZZ      -0.0000   YYZZ     -43.1477
      XZZZ      -0.0337   YZZZ       0.0040   ZZZZ     -46.0690
 -----------------------------------------------------------------
 Calculating analytic gradient of the SCF energy
 Gradient of SCF Energy
            1           2           3           4           5           6
    1   0.7904151  -0.7604667  -0.0171748  -0.0171756   0.0005897   0.0005953
    2   0.0000807  -0.0000765  -0.0041882   0.0041820  -0.0005161  -0.0005292
    3   0.0003066  -0.0002817  -0.0000229  -0.0000168   0.0001200  -0.0001102
            7           8           9          10
    1   0.0010154   0.0010157   0.0005906   0.0005953
    2  -0.0004761   0.0004771   0.0005186   0.0005277
    3   0.0000005  -0.0000019   0.0001180  -0.0001116
 Max gradient component =       7.904E-01
 RMS gradient           =       2.003E-01
 Gradient time:  CPU 8.33 s  wall 0.64 s
 Geometry Optimization Parameters
   NAtoms,    NIC,     NZ,  NCons,   NDum,   NFix, NCnnct, MaxDiis
       10      56       0       1       0       0       0       0

 Cartesian Hessian Update
 Hessian Updated using BFGS Update


** CONSTRAINED OPTIMIZATION IN DELOCALIZED INTERNAL COORDINATES **
   Searching for a Minimum

   Optimization Cycle:   4

                       Coordinates (Angstroms)
     ATOM                X               Y               Z
      1  S        -1.0992787940   -0.0001462267   -0.0010131891
      2  C         0.1647561406   -0.0000178071   -0.0005535041
      3  C         1.0385062618    1.2563313014    0.0001522104
      4  C         1.0387699412   -1.2561877336    0.0001631458
      5  H         1.6962407235    1.2695740873    0.8792400055
      6  H         1.7025297226    1.2670464588   -0.8742005397
      7  H         0.4292212032    2.1599893369   -0.0031487757
      8  H         0.4296713800   -2.1599740196   -0.0017603272
      9  H         1.6976677138   -1.2686526829    0.8783878998
     10  H         1.7016457073   -1.2673927145   -0.8750569257
   Point Group: c1    Number of degrees of freedom:    24


   Energy is   -515.919648521

              Constraints and their Current Values
                                        Value     Constraint
   Distance(Angs):        1   2             1.264035     1.250000
 Hessian Updated using BFGS Update

   Using Lagrange Multiplier Algorithm


 25 Hessian modes will be used to form the next step
  Hessian Eigenvalues:
    -0.413957    0.126296    0.126296    0.126296    0.260859    0.260867
     0.268719    0.268915    0.448446    0.449054    0.449054    0.449054
     0.449054    0.449066    0.661307    0.701646    0.865247    0.890664
     0.951138    0.951181    0.951249    0.951278    0.978745    0.978793
     2.545392

 Minimum Search - Taking P-RFO Step
 Searching for Lamda that Maximizes Along the Constraint modes Only
 Value Taken    Lamda =   0.01406513
 Searching for Lamda that Minimizes Along All other modes
 Value Taken    Lamda =  -0.00693553
 Step Taken.  Stepsize is  0.053671

                             Maximum     Tolerance    Cnvgd?
         Gradient            0.147529       0.000300      NO
         Displacement        0.181709       0.001200      NO
         Energy change      0.097090       0.000001      NO


 New Cartesian Coordinates Obtained by Inverse Iteration

 Displacement from previous Coordinates is:  0.073395
 ----------------------------------------------------------------
             Standard Nuclear Orientation (Angstroms)
    I     Atom           X                Y                Z
 ----------------------------------------------------------------
    1      S      -1.1094399472    -0.0001478780    -0.0010690358
    2      C       0.1417436495    -0.0000201013    -0.0005799140
    3      C       1.0406265492     1.2513846492     0.0001596422
    4      C       1.0408889063    -1.2512392499     0.0001691606
    5      H       1.6976742966     1.2580780869     0.8794645973
    6      H       1.7039036195     1.2555608525    -0.8744445782
    7      H       0.4408835002     2.1621585500    -0.0030991936
    8      H       0.4413353073    -2.1621404684    -0.0017122393
    9      H       1.6990857378    -1.2571483519     0.8786179642
   10      H       1.7030283808    -1.2559160891    -0.8752964034
 ----------------------------------------------------------------
 Nuclear Repulsion Energy =   166.5553250683 hartrees
 There are       20 alpha and       20 beta electrons

                       Distance Matrix (Angstroms)
             S (  1)   C (  2)   C (  3)   C (  4)   H (  5)   H (  6)
   C (  2)  1.251184
   C (  3)  2.487794  1.540781
   C (  4)  2.487799  1.540783  2.502624
   H (  5)  3.199744  2.185912  1.097695  2.738832
   H (  6)  3.202263  2.186428  1.097673  2.736528  1.753922
   H (  7)  2.660653  2.182775  1.090510  3.465732  1.782078  1.782241
   H (  8)  2.660661  2.182778  3.465733  1.090509  3.748700  3.746521
   H (  9)  3.200268  2.186018  2.738247  1.097693  2.515227  3.063814
   H ( 10)  3.201750  2.186324  2.737107  1.097675  3.065841  2.511477
             H (  7)   H (  8)   H (  9)
   H (  8)  4.324299
   H (  9)  3.748621  1.782113
   H ( 10)  3.746595  1.782207  1.753919
 
 Applying Cartesian multipole field
    Component          Value
    ---------          -----
     (2,0,0)        1.00000E-11
     (0,2,0)        2.00000E-11
     (0,0,2)       -3.00000E-10
 Nucleus-field energy     =     0.0000000008 hartrees
 Requested basis set is 6-31G(d,p)
 There are 35 shells and 94 basis functions
 A cutoff of  1.0D-14 yielded    620 shell pairs
 There are      4567 function pairs
 Smallest overlap matrix eigenvalue = 5.85E-03
 Guess from superposition of atomic densities
 Warning:  Energy on first SCF cycle will be non-variational
 SAD guess density has 40.000000 electrons

 -----------------------------------------------------------------------
  General SCF calculation program by
  Eric Jon Sundstrom, Paul Horn, Yuezhi Mao, Dmitri Zuev, Alec White,
  David Stuck, Shaama M.S., Shane Yost, Joonho Lee, David Small,
  Daniel Levine, Susi Lehtola, Hugh Burton, Evgeny Epifanovsky
 -----------------------------------------------------------------------
 Exchange:     0.2000 Hartree-Fock + 0.0800 Slater + 0.7200 B88
 Correlation:  0.1900 VWN1RPA + 0.8100 LYP
 Using SG-1 standard quadrature grid
 using 16 threads for integral computing
 -------------------------------------------------------
 OpenMP Integral computing Module                
 Release: version 1.0, May 2013, Q-Chem Inc. Pittsburgh 
 -------------------------------------------------------
 -------------------------------------------------------
 OpenMP BLAS3 based DFT computing Module                
 Release: version 1.0, May 2013, Q-Chem Inc. Pittsburgh 
 -------------------------------------------------------
 A unrestricted SCF calculation will be
 performed using DIIS
 SCF converges when DIIS error is below 1.0e-06
 Alpha HF Exchange    Energy =  -4.34414994742513
 Beta HF Exchange     Energy =  -4.34414994742513
 DFT Correlation      Energy =  -1.81947788761910
 DFT Exchange         Energy = -33.65139002064917
 One-Electron (alpha) Energy = -516.82966510126835
 One-Electron (beta)  Energy = -516.82966510126835
 Total Coulomb        Energy = 394.02188884144789
 ---------------------------------------
  Cycle       Energy         DIIS error
 ---------------------------------------
    1    -517.2412840952      4.44e-02  
 Alpha HF Exchange    Energy =  -4.32992698184595
 Beta HF Exchange     Energy =  -4.32992698184595
 DFT Correlation      Energy =  -1.85233636780286
 DFT Exchange         Energy = -34.35290115435993
 One-Electron (alpha) Energy = -521.29693307074399
 One-Electron (beta)  Energy = -521.29693307074399
 Total Coulomb        Energy = 405.12965460390933
    2    -515.7739779544      5.22e-03  
 Alpha HF Exchange    Energy =  -4.25848632832065
 Beta HF Exchange     Energy =  -4.25848632832065
 DFT Correlation      Energy =  -1.81761131884720
 DFT Exchange         Energy = -33.74957881648974
 One-Electron (alpha) Energy = -515.95713442703175
 One-Electron (beta)  Energy = -515.95713442703197
 Total Coulomb        Energy = 393.77078597673062
    3    -515.6723206003      6.89e-03  
 Alpha HF Exchange    Energy =  -4.29213513144788
 Beta HF Exchange     Energy =  -4.29213513144788
 DFT Correlation      Energy =  -1.83596015621401
 DFT Exchange         Energy = -34.03511635726961
 One-Electron (alpha) Energy = -518.78018837225295
 One-Electron (beta)  Energy = -518.78018837225306
 Total Coulomb        Energy = 399.56351058014343
    4    -515.8968878717      9.41e-04  
 Alpha HF Exchange    Energy =  -4.29468513411197
 Beta HF Exchange     Energy =  -4.29468513411198
 DFT Correlation      Energy =  -1.83653757717269
 DFT Exchange         Energy = -34.05478755675863
 One-Electron (alpha) Energy = -518.89968070930763
 One-Electron (beta)  Energy = -518.89968070930797
 Total Coulomb        Energy = 399.82406850648090
    5    -515.9006632452      2.10e-04  
 Alpha HF Exchange    Energy =  -4.29403778204836
 Beta HF Exchange     Energy =  -4.29403778204836
 DFT Correlation      Energy =  -1.83621339274957
 DFT Exchange         Energy = -34.04948215442064
 One-Electron (alpha) Energy = -518.86348707981801
 One-Electron (beta)  Energy = -518.86348707981801
 Total Coulomb        Energy = 399.74458720852283
    6    -515.9008329933      6.42e-05  
 Alpha HF Exchange    Energy =  -4.29395058385716
 Beta HF Exchange     Energy =  -4.29395058385716
 DFT Correlation      Energy =  -1.83620763202150
 DFT Exchange         Energy = -34.04879004650719
 One-Electron (alpha) Energy = -518.84858762155739
 One-Electron (beta)  Energy = -518.84858762155773
 Total Coulomb        Energy = 399.71389963145998
    7    -515.9008493888      1.42e-05  
 Alpha HF Exchange    Energy =  -4.29399985092134
 Beta HF Exchange     Energy =  -4.29399985092134
 DFT Correlation      Energy =  -1.83622593191253
 DFT Exchange         Energy = -34.04917762323939
 One-Electron (alpha) Energy = -518.85509186926595
 One-Electron (beta)  Energy = -518.85509186926572
 Total Coulomb        Energy = 399.72741151303467
    8    -515.9008504134      1.23e-06  
 Alpha HF Exchange    Energy =  -4.29400219289139
 Beta HF Exchange     Energy =  -4.29400219289138
 DFT Correlation      Energy =  -1.83622728916714
 DFT Exchange         Energy = -34.04919358912194
 One-Electron (alpha) Energy = -518.85508815941228
 One-Electron (beta)  Energy = -518.85508815941216
 Total Coulomb        Energy = 399.72742609119564
    9    -515.9008504227      2.96e-07  Convergence criterion met
 ---------------------------------------
 SCF time:   CPU 32.77s  wall 4.00s 
<S^2> =          0.000000000
 Alpha HF Exchange    Energy =  -4.29400219289139
 Beta HF Exchange     Energy =  -4.29400219289138
 DFT Correlation      Energy =  -1.83622728916714
 DFT Exchange         Energy = -34.04919358912194
 One-Electron (alpha) Energy = -518.85508815941228
 One-Electron (beta)  Energy = -518.85508815941216
 Total Coulomb        Energy = 399.72742609119564
 Nuclear repulsion Energy = 166.55532506904885
 SCF   energy in the final basis set =     -515.9008504227
 Total energy in the final basis set =     -515.9008504227
 
 --------------------------------------------------------------
 
                    Orbital Energies (a.u.)
 --------------------------------------------------------------
 
 Alpha MOs
 -- Occupied --
-88.824 -10.217 -10.182 -10.182  -7.917  -5.880  -5.876  -5.868
 -0.908  -0.724  -0.696  -0.499  -0.459  -0.456  -0.428  -0.388
 -0.375  -0.363  -0.346  -0.198
 -- Virtual --
 -0.023   0.086   0.147   0.147   0.155   0.165   0.165   0.182
  0.216   0.217   0.315   0.341   0.463   0.513   0.527   0.544
  0.558   0.606   0.619   0.688   0.700   0.729   0.772   0.781
  0.785   0.803   0.869   0.892   0.902   0.904   0.919   0.955
  0.964   1.126   1.226   1.329   1.450   1.555   1.650   1.695
  1.744   1.822   1.875   1.961   2.031   2.039   2.062   2.067
  2.099   2.106   2.111   2.214   2.351   2.414   2.434   2.482
  2.617   2.703   2.719   2.751   2.809   2.879   2.903   2.993
  3.166   3.230   3.397   3.411   3.438   3.471   3.987   4.244
  4.491   4.616
 
 Beta MOs
 -- Occupied --
-88.824 -10.217 -10.182 -10.182  -7.917  -5.880  -5.876  -5.868
 -0.908  -0.724  -0.696  -0.499  -0.459  -0.456  -0.428  -0.388
 -0.375  -0.363  -0.346  -0.198
 -- Virtual --
 -0.023   0.086   0.147   0.147   0.155   0.165   0.165   0.182
  0.216   0.217   0.315   0.341   0.463   0.513   0.527   0.544
  0.558   0.606   0.619   0.688   0.700   0.729   0.772   0.781
  0.785   0.803   0.869   0.892   0.902   0.904   0.919   0.955
  0.964   1.126   1.226   1.329   1.450   1.555   1.650   1.695
  1.744   1.822   1.875   1.961   2.031   2.039   2.062   2.067
  2.099   2.106   2.111   2.214   2.351   2.414   2.434   2.482
  2.617   2.703   2.719   2.751   2.809   2.879   2.903   2.993
  3.166   3.230   3.397   3.411   3.438   3.471   3.987   4.244
  4.491   4.616
 --------------------------------------------------------------
 
          Ground-State Mulliken Net Atomic Charges

     Atom                 Charge (a.u.)    Spin (a.u.)
  --------------------------------------------------------
      1 S                    -0.057901      -0.000000
      2 C                     0.065786       0.000000
      3 C                    -0.355587      -0.000000
      4 C                    -0.355587       0.000000
      5 H                     0.116892       0.000000
      6 H                     0.116753      -0.000000
      7 H                     0.117998       0.000000
      8 H                     0.117998      -0.000000
      9 H                     0.116859       0.000000
     10 H                     0.116787      -0.000000
  --------------------------------------------------------
  Sum of atomic charges =     0.000000
  Sum of spin   charges =     0.000000

 -----------------------------------------------------------------
                    Cartesian Multipole Moments
 -----------------------------------------------------------------
    Charge (ESU x 10^10)
                 0.0000
    Dipole Moment (Debye)
         X       1.6735      Y       0.0002      Z       0.0020
       Tot       1.6735
    Quadrupole Moments (Debye-Ang)
        XX     -32.9263     XY      -0.0001     YY     -32.5907
        XZ      -0.0003     YZ       0.0005     ZZ     -30.8702
    Octopole Moments (Debye-Ang^2)
       XXX      -6.9848    XXY       0.0007    XYY      -1.6614
       YYY       0.0028    XXZ       0.0096    XYZ       0.0012
       YYZ       0.0108    XZZ      -2.7124    YZZ       0.0008
       ZZZ       0.0441
    Hexadecapole Moments (Debye-Ang^3)
      XXXX    -253.1264   XXXY      -0.0006   XXYY     -81.3081
      XYYY      -0.0038   YYYY    -203.6207   XXXZ      -0.0847
      XXYZ       0.0011   XYYZ      -0.0134   YYYZ      -0.0040
      XXZZ     -45.6547   XYZZ      -0.0001   YYZZ     -42.9989
      XZZZ      -0.0369   YZZZ       0.0040   ZZZZ     -45.9363
 -----------------------------------------------------------------
 Calculating analytic gradient of the SCF energy
 Gradient of SCF Energy
            1           2           3           4           5           6
    1   0.8453678  -0.8252899  -0.0126488  -0.0126501   0.0008778   0.0008862
    2   0.0000865  -0.0000837  -0.0037906   0.0037864  -0.0001654  -0.0001749
    3   0.0003489  -0.0003281  -0.0000190  -0.0000147   0.0000444  -0.0000351
            7           8           9          10
    1   0.0008457   0.0008462   0.0008792   0.0008858
    2  -0.0006448   0.0006456   0.0001668   0.0001741
    3  -0.0000007  -0.0000023   0.0000429  -0.0000362
 Max gradient component =       8.454E-01
 RMS gradient           =       2.157E-01
 Gradient time:  CPU 8.45 s  wall 0.69 s
 Geometry Optimization Parameters
   NAtoms,    NIC,     NZ,  NCons,   NDum,   NFix, NCnnct, MaxDiis
       10      56       0       1       0       0       0       0

 Cartesian Hessian Update
 Hessian Updated using BFGS Update


** CONSTRAINED OPTIMIZATION IN DELOCALIZED INTERNAL COORDINATES **
   Searching for a Minimum

   Optimization Cycle:   5

                       Coordinates (Angstroms)
     ATOM                X               Y               Z
      1  S        -1.1094399472   -0.0001478780   -0.0010690358
      2  C         0.1417436495   -0.0000201013   -0.0005799140
      3  C         1.0406265492    1.2513846492    0.0001596422
      4  C         1.0408889063   -1.2512392499    0.0001691606
      5  H         1.6976742966    1.2580780869    0.8794645973
      6  H         1.7039036195    1.2555608525   -0.8744445782
[...]
 Step Taken.  Stepsize is  0.001736

                             Maximum     Tolerance    Cnvgd?
         Gradient           0.000186      0.000300     YES
         Displacement       0.001293      0.001200      NO
         Energy change      0.000141      0.000001      NO


 New Cartesian Coordinates Obtained by Inverse Iteration

 Displacement from previous Coordinates is:  0.002498
 ----------------------------------------------------------------
             Standard Nuclear Orientation (Angstroms)
    I     Atom           X                Y                Z
 ----------------------------------------------------------------
    1      S      -2.0274105318    -0.0002343836    -0.0055162477
    2      C       0.4725842894     0.0000123931    -0.0004743336
    3      C       1.1394692973     1.3017148973     0.0006945971
    4      C       1.1397445928    -1.3015492266     0.0008458610
    5      H       1.8001635651     1.3787067064     0.8808201830
    6      H       1.8034672591     1.3785819935    -0.8769545268
    7      H       0.4335202952     2.1309627863    -0.0007019206
    8      H       0.4339741480    -2.1309511222     0.0000768705
    9      H       1.8009819545    -1.3781161404     0.8805975079
   10      H       1.8032351305    -1.3785579037    -0.8771779909
 ----------------------------------------------------------------
 Nuclear Repulsion Energy =   132.4044802003 hartrees
 There are       20 alpha and       20 beta electrons

                       Distance Matrix (Angstroms)
             S (  1)   C (  2)   C (  3)   C (  4)   H (  5)   H (  6)
   C (  2)  2.500000
   C (  3)  3.424068  1.462589
   C (  4)  3.424081  1.462589  2.603264
   H (  5)  4.163820  2.107118  1.103207  2.897288
   H (  6)  4.163672  2.107112  1.103209  2.897268  1.757778
   H (  7)  3.255488  2.131308  1.089045  3.504411  1.791838  1.791829
   H (  8)  3.255518  2.131313  3.504414  1.089045  3.867800  3.868012
   H (  9)  4.164174  2.107170  2.897123  1.103205  2.756823  3.269309
   H ( 10)  4.163342  2.107059  2.897431  1.103212  3.270027  2.757140
             H (  7)   H (  8)   H (  9)
   H (  8)  4.261914
   H (  9)  3.867851  1.791867
   H ( 10)  3.867954  1.791800  1.757777
 
 Applying Cartesian multipole field
    Component          Value
    ---------          -----
     (2,0,0)        1.00000E-11
     (0,2,0)        2.00000E-11
     (0,0,2)       -3.00000E-10
 Nucleus-field energy     =     0.0000000028 hartrees
 Requested basis set is 6-31G(d,p)
 There are 35 shells and 94 basis functions
 A cutoff of  1.0D-14 yielded    607 shell pairs
 There are      4500 function pairs
 Smallest overlap matrix eigenvalue = 6.31E-03
 Guess from superposition of atomic densities
 Warning:  Energy on first SCF cycle will be non-variational
 SAD guess density has 40.000000 electrons

 -----------------------------------------------------------------------
  General SCF calculation program by
  Eric Jon Sundstrom, Paul Horn, Yuezhi Mao, Dmitri Zuev, Alec White,
  David Stuck, Shaama M.S., Shane Yost, Joonho Lee, David Small,
  Daniel Levine, Susi Lehtola, Hugh Burton, Evgeny Epifanovsky
 -----------------------------------------------------------------------
 Exchange:     0.2000 Hartree-Fock + 0.0800 Slater + 0.7200 B88
 Correlation:  0.1900 VWN1RPA + 0.8100 LYP
 Using SG-1 standard quadrature grid
 using 16 threads for integral computing
 -------------------------------------------------------
 OpenMP Integral computing Module                
 Release: version 1.0, May 2013, Q-Chem Inc. Pittsburgh 
 -------------------------------------------------------
 -------------------------------------------------------
 OpenMP BLAS3 based DFT computing Module                
 Release: version 1.0, May 2013, Q-Chem Inc. Pittsburgh 
 -------------------------------------------------------
 A unrestricted SCF calculation will be
 performed using DIIS
 SCF converges when DIIS error is below 1.0e-06
 Alpha HF Exchange    Energy =  -4.24569478870009
 Beta HF Exchange     Energy =  -4.24569478870009
 DFT Correlation      Energy =  -1.79228485158312
 DFT Exchange         Energy = -33.43853190236906
 One-Electron (alpha) Energy = -483.40251380792586
 One-Electron (beta)  Energy = -483.40251380792586
 Total Coulomb        Energy = 361.91874651071873
 ---------------------------------------
  Cycle       Energy         DIIS error
 ---------------------------------------
    1    -516.2040072334      2.93e-02  
 Alpha HF Exchange    Energy =  -4.26916147982052
 Beta HF Exchange     Energy =  -4.26916147982052
 DFT Correlation      Energy =  -1.81475092508208
 DFT Exchange         Energy = -33.90202346071286
 One-Electron (alpha) Energy = -486.50217923816052
 One-Electron (beta)  Energy = -486.50217923816052
 Total Coulomb        Energy = 369.06779658218966
    2    -515.7871790365      5.30e-03  
 Alpha HF Exchange    Energy =  -4.26141572541685
 Beta HF Exchange     Energy =  -4.26141572541685
 DFT Correlation      Energy =  -1.81027394195821
 DFT Exchange         Energy = -33.78910646642625
 One-Electron (alpha) Energy = -483.42768321783927
 One-Electron (beta)  Energy = -483.42768321783910
 Total Coulomb        Energy = 364.40394096671480
    3    -514.1691571251      1.52e-02  
 Alpha HF Exchange    Energy =  -4.22653229651483
 Beta HF Exchange     Energy =  -4.22653229651483
 DFT Correlation      Energy =  -1.79695072882068
 DFT Exchange         Energy = -33.56388889617624
 One-Electron (alpha) Energy = -483.98878632662718
 One-Electron (beta)  Energy = -483.98878632662729
 Total Coulomb        Energy = 363.47580999335798
    4    -515.9111866748      3.30e-03  
 Alpha HF Exchange    Energy =  -4.23845124865909
 Beta HF Exchange     Energy =  -4.23845124865908
 DFT Correlation      Energy =  -1.80652755436350
 DFT Exchange         Energy = -33.69919637957223
 One-Electron (alpha) Energy = -484.78954591864670
 One-Electron (beta)  Energy = -484.78954591864635
 Total Coulomb        Energy = 365.21324263875510
    5    -515.9439954267      2.17e-03  
 Alpha HF Exchange    Energy =  -4.23975877101517
 Beta HF Exchange     Energy =  -4.23975877101517
 DFT Correlation      Energy =  -1.80549725250085
 DFT Exchange         Energy = -33.69793116699830
 One-Electron (alpha) Energy = -484.94475506337284
 One-Electron (beta)  Energy = -484.94475506337290
 Total Coulomb        Energy = 365.49502473125949
    6    -515.9729511539      2.56e-04  
 Alpha HF Exchange    Energy =  -4.23818707995985
 Beta HF Exchange     Energy =  -4.23818707995985
 DFT Correlation      Energy =  -1.80502849905061
 DFT Exchange         Energy = -33.68624242161455
 One-Electron (alpha) Energy = -484.79534412934572
 One-Electron (beta)  Energy = -484.79534412934584
 Total Coulomb        Energy = 365.18172493977681
    7    -515.9721281964      4.08e-04  
 Alpha HF Exchange    Energy =  -4.23879534533805
 Beta HF Exchange     Energy =  -4.23879534533805
 DFT Correlation      Energy =  -1.80500466647791
 DFT Exchange         Energy = -33.68852533685349
 One-Electron (alpha) Energy = -484.84788588845470
 One-Electron (beta)  Energy = -484.84788588845458
 Total Coulomb        Energy = 365.28916907913754
    8    -515.9732431887      6.34e-05  
 Alpha HF Exchange    Energy =  -4.23888523915678
 Beta HF Exchange     Energy =  -4.23888523915677
 DFT Correlation      Energy =  -1.80498284159625
 DFT Exchange         Energy = -33.68872826548244
 One-Electron (alpha) Energy = -484.85055074599506
 One-Electron (beta)  Energy = -484.85055074599484
 Total Coulomb        Energy = 365.29483283959871
    9    -515.9732700347      4.90e-06  
 Alpha HF Exchange    Energy =  -4.23890786101665
 Beta HF Exchange     Energy =  -4.23890786101666
 DFT Correlation      Energy =  -1.80498323301712
 DFT Exchange         Energy = -33.68881103021458
 One-Electron (alpha) Energy = -484.85192104077572
 One-Electron (beta)  Energy = -484.85192104077595
 Total Coulomb        Energy = 365.29770171684595
   10    -515.9732701469      4.09e-06  
 Alpha HF Exchange    Energy =  -4.23890867858378
 Beta HF Exchange     Energy =  -4.23890867858378
 DFT Correlation      Energy =  -1.80498327217283
 DFT Exchange         Energy = -33.68880684838111
 One-Electron (alpha) Energy = -484.85178150367898
 One-Electron (beta)  Energy = -484.85178150367904
 Total Coulomb        Energy = 365.29742007018336
   11    -515.9732702118      2.61e-06  
 Alpha HF Exchange    Energy =  -4.23890773167166
 Beta HF Exchange     Energy =  -4.23890773167167
 DFT Correlation      Energy =  -1.80498392703584
 DFT Exchange         Energy = -33.68880609172864
 One-Electron (alpha) Energy = -484.85157096277192
 One-Electron (beta)  Energy = -484.85157096277226
 Total Coulomb        Energy = 365.29699694778685
   12    -515.9732702568      4.36e-08  Convergence criterion met
 ---------------------------------------
 SCF time:   CPU 24.45s  wall 1.00s 
<S^2> =         -0.000000000
 Alpha HF Exchange    Energy =  -4.23890773167166
 Beta HF Exchange     Energy =  -4.23890773167167
 DFT Correlation      Energy =  -1.80498392703584
 DFT Exchange         Energy = -33.68880609172864
 One-Electron (alpha) Energy = -484.85157096277192
 One-Electron (beta)  Energy = -484.85157096277226
 Total Coulomb        Energy = 365.29699694778685
 Nuclear repulsion Energy = 132.40448020309373
 SCF   energy in the final basis set =     -515.9732702568
 Total energy in the final basis set =     -515.9732702568
 
 --------------------------------------------------------------
 
                    Orbital Energies (a.u.)
 --------------------------------------------------------------
 
 Alpha MOs
 -- Occupied --
-88.854 -10.310 -10.230 -10.229  -7.908  -5.877  -5.868  -5.863
 -0.836  -0.746  -0.610  -0.568  -0.477  -0.473  -0.461  -0.433
 -0.413  -0.277  -0.210  -0.199
 -- Virtual --
 -0.126  -0.085   0.071   0.118   0.135   0.136   0.140   0.163
  0.201   0.265   0.350   0.404   0.410   0.412   0.453   0.532
  0.542   0.542   0.584   0.633   0.658   0.668   0.700   0.766
  0.780   0.828   0.829   0.836   0.844   0.861   0.864   0.879
  0.907   0.915   1.037   1.251   1.261   1.310   1.352   1.479
  1.563   1.811   1.838   1.858   1.885   1.886   1.991   1.993
  2.033   2.060   2.060   2.060   2.227   2.297   2.325   2.512
  2.555   2.567   2.646   2.677   2.793   2.814   2.897   2.909
  3.131   3.169   3.348   3.375   3.384   3.421   3.931   4.064
  4.435   4.502
 
 Beta MOs
 -- Occupied --
-88.854 -10.310 -10.230 -10.229  -7.908  -5.877  -5.868  -5.863
 -0.836  -0.746  -0.610  -0.568  -0.477  -0.473  -0.461  -0.433
 -0.413  -0.277  -0.210  -0.199
 -- Virtual --
 -0.126  -0.085   0.071   0.118   0.135   0.136   0.140   0.163
  0.201   0.265   0.350   0.404   0.410   0.412   0.453   0.532
  0.542   0.542   0.584   0.633   0.658   0.668   0.700   0.766
  0.780   0.828   0.829   0.836   0.844   0.861   0.864   0.879
  0.907   0.915   1.037   1.251   1.261   1.310   1.352   1.479
  1.563   1.811   1.838   1.858   1.885   1.886   1.991   1.993
  2.033   2.060   2.060   2.060   2.227   2.297   2.325   2.512
  2.555   2.567   2.646   2.677   2.793   2.814   2.897   2.909
  3.131   3.169   3.348   3.375   3.384   3.421   3.931   4.064
  4.435   4.502
 --------------------------------------------------------------
 
          Ground-State Mulliken Net Atomic Charges

     Atom                 Charge (a.u.)    Spin (a.u.)
  --------------------------------------------------------
      1 S                    -0.336906      -0.000000
      2 C                     0.086233       0.000000
      3 C                    -0.369217      -0.000000
      4 C                    -0.369219       0.000000
      5 H                     0.153014       0.000000
      6 H                     0.153022      -0.000000
      7 H                     0.188518      -0.000000
      8 H                     0.188518      -0.000000
      9 H                     0.152988      -0.000000
     10 H                     0.153048      -0.000000
  --------------------------------------------------------
  Sum of atomic charges =    -0.000000
  Sum of spin   charges =     0.000000

 -----------------------------------------------------------------
                    Cartesian Multipole Moments
 -----------------------------------------------------------------
    Charge (ESU x 10^10)
                -0.0000
    Dipole Moment (Debye)
         X       6.0008      Y       0.0006      Z       0.0115
       Tot       6.0008
    Quadrupole Moments (Debye-Ang)
        XX     -35.1117     XY      -0.0007     YY     -30.7741
        XZ      -0.0127     YZ       0.0002     ZZ     -33.4034
    Octopole Moments (Debye-Ang^2)
       XXX      34.3593    XXY       0.0015    XYY      15.2836
       YYY       0.0074    XXZ       0.0688    XYZ       0.0007
       YYZ       0.0761    XZZ      12.9331    YZZ       0.0024
       ZZZ       0.2239
    Hexadecapole Moments (Debye-Ang^3)
      XXXX    -498.7621   XXXY      -0.0130   XXYY    -125.9657
      XYYY      -0.0189   YYYY    -199.9847   XXXZ      -0.4813
      XXYZ       0.0027   XYYZ      -0.1876   YYYZ       0.0022
      XXZZ     -93.0456   XYZZ      -0.0052   YYZZ     -43.9780
      XZZZ      -0.5102   YZZZ       0.0067   ZZZZ     -52.8940
 -----------------------------------------------------------------
 Calculating analytic gradient of the SCF energy
 Gradient of SCF Energy
            1           2           3           4           5           6
    1  -0.0866530   0.0866359   0.0000305   0.0000306  -0.0000113  -0.0000110
    2  -0.0000088   0.0000086  -0.0000191   0.0000191  -0.0000064  -0.0000070
    3  -0.0001713   0.0001767  -0.0000026  -0.0000026   0.0000098  -0.0000099
            7           8           9          10
    1   0.0000001   0.0000004  -0.0000113  -0.0000108
    2   0.0000128  -0.0000128   0.0000065   0.0000071
    3  -0.0000003  -0.0000002   0.0000100  -0.0000097
 Max gradient component =       8.665E-02
 RMS gradient           =       2.237E-02
 Gradient time:  CPU 7.17 s  wall 0.45 s
 Geometry Optimization Parameters
   NAtoms,    NIC,     NZ,  NCons,   NDum,   NFix, NCnnct, MaxDiis
       10      56       0       1       0       0       0       0

 Cartesian Hessian Update
 Hessian Updated using BFGS Update


** CONSTRAINED OPTIMIZATION IN DELOCALIZED INTERNAL COORDINATES **
   Searching for a Minimum

   Optimization Cycle:   4

                       Coordinates (Angstroms)
     ATOM                X               Y               Z
      1  S        -2.0274105318   -0.0002343836   -0.0055162477
      2  C         0.4725842894    0.0000123931   -0.0004743336
      3  C         1.1394692973    1.3017148973    0.0006945971
      4  C         1.1397445928   -1.3015492266    0.0008458610
      5  H         1.8001635651    1.3787067064    0.8808201830
      6  H         1.8034672591    1.3785819935   -0.8769545268
      7  H         0.4335202952    2.1309627863   -0.0007019206
      8  H         0.4339741480   -2.1309511222    0.0000768705
      9  H         1.8009819545   -1.3781161404    0.8805975079
     10  H         1.8032351305   -1.3785579037   -0.8771779909
   Point Group: c1    Number of degrees of freedom:    24


   Energy is   -515.973270257

              Constraints and their Current Values
                                        Value     Constraint
   Distance(Angs):        1   2             2.500000     2.500000
 Hessian Updated using BFGS Update

 16 Hessian modes will be used to form the next step
  Hessian Eigenvalues:
     0.044876    0.045000    0.085664    0.092366    0.092378    0.135270
     0.160002    0.167061    0.184816    0.250000    0.332916    0.333517
     0.333520    0.333522    0.348836    0.393751

 Minimum Search - Taking Simple RFO Step
 Searching for Lamda that Minimizes Along All modes
 Value Taken    Lamda =   0.00000000
 Step Taken.  Stepsize is  0.000585

                             Maximum     Tolerance    Cnvgd?
         Gradient           0.000075      0.000300     YES
         Displacement       0.000423      0.001200     YES
         Energy change     -0.000000      0.000001     YES


                       Distance Matrix (Angstroms)
             S (  1)   C (  2)   C (  3)   C (  4)   H (  5)   H (  6)
   C (  2)  2.500000
   C (  3)  3.424068  1.462589
   C (  4)  3.424081  1.462589  2.603264
   H (  5)  4.163820  2.107118  1.103207  2.897288
   H (  6)  4.163672  2.107112  1.103209  2.897268  1.757778
   H (  7)  3.255488  2.131308  1.089045  3.504411  1.791838  1.791829
   H (  8)  3.255518  2.131313  3.504414  1.089045  3.867800  3.868012
   H (  9)  4.164174  2.107170  2.897123  1.103205  2.756823  3.269309
   H ( 10)  4.163342  2.107059  2.897431  1.103212  3.270027  2.757140
             H (  7)   H (  8)   H (  9)
   H (  8)  4.261914
   H (  9)  3.867851  1.791867
   H ( 10)  3.867954  1.791800  1.757777
 
 Final energy is   -515.973270256771     


 ******************************
 **  OPTIMIZATION CONVERGED  **
 ******************************

                       Coordinates (Angstroms)
     ATOM                X               Y               Z
      1  S        -2.0274105318   -0.0002343836   -0.0055162477
      2  C         0.4725842894    0.0000123931   -0.0004743336
      3  C         1.1394692973    1.3017148973    0.0006945971
      4  C         1.1397445928   -1.3015492266    0.0008458610
      5  H         1.8001635651    1.3787067064    0.8808201830
      6  H         1.8034672591    1.3785819935   -0.8769545268
      7  H         0.4335202952    2.1309627863   -0.0007019206
      8  H         0.4339741480   -2.1309511222    0.0000768705
      9  H         1.8009819545   -1.3781161404    0.8805975079
     10  H         1.8032351305   -1.3785579037   -0.8771779909

Z-matrix Print:
$molecule
0 1
S 
C  1 2.500000
C  2 1.462589 1 117.132549
H  3 1.089045 2 112.464888 1 0.007934 0
H  3 1.103207 2 109.622330 1 122.252888 0
H  3 1.103209 2 109.621772 1 -122.235339 0
C  2 1.462589 1 117.133363 3 -179.991138 0
H  7 1.089045 2 112.465214 1 -0.038173 0
H  7 1.103205 2 109.626630 1 -122.289907 0
H  7 1.103212 2 109.617361 1 122.198493 0
$end

PES scan, value:    2.5000 energy: -515.9732702568
------- Summary of potential scan: ------ 
    1.2500      -515.8997567062
    1.3000      -515.9690950620
    1.3500      -516.0206903526
    1.4000      -516.0581155013
    1.4500      -516.0843435929
    1.5000      -516.1018289535
    1.5500      -516.1124571967
    1.6000      -516.1176831528
    1.6500      -516.1186972345
    1.7000      -516.1164856489
    1.7500      -516.1118474083
    1.8000      -516.1053910312
    1.8500      -516.0975623475
    1.9000      -516.0887210380
    1.9500      -516.0791832918
    2.0000      -516.0692201846
    2.0500      -516.0590440892
    2.1000      -516.0487944944
    2.1500      -516.0385652636
    2.2000      -516.0284396212
    2.2500      -516.0184968776
    2.3000      -516.0088039418
    2.3500      -515.9994107008
    2.4000      -515.9903497768
    2.4500      -515.9816348910
    2.5000      -515.9732702568
----------------------------------------- 
Archival summary:
1\1\hpc3448\JobtypUnspecified\ProcedureUnspecified\6-31G**\136\kris658\ThuNov114:24:052018ThuNov114:24:052018\0\\#,JobtypUnspecified,ProcedureUnspecified,6-31G**,\\0,1\S\C,1,2.5\C,2,1.46259,1,117.133\H,3,1.08904,2,112.465,1,0.00793446,0\H,3,1.10321,2,109.622,1,122.253,0\H,3,1.10321,2,109.622,1,-122.235,0\C,2,1.46259,1,117.133,3,-179.991,0\H,7,1.08905,2,112.465,1,-0.0381733,0\H,7,1.1032,2,109.627,1,-122.29,0\H,7,1.10321,2,109.617,1,122.198,0\\\@

 Total job time:  241.46s(wall), 3722.81s(cpu) 
 Thu Nov  1 14:24:05 2018

        *************************************************************
        *                                                           *
        *  Thank you very much for using Q-Chem.  Have a nice day.  *
        *                                                           *
        *************************************************************


