********************************************************************************
*                       GENERAL UTILITY LATTICE PROGRAM                        *
*                                 Julian Gale                                  *
*                      Nanochemistry Research Institute                        *
*                           Department of Chemistry                            *
*                    Curtin University, Western Australia                      *
********************************************************************************
* Version = 4.4.2 * Last modified = 20th June 2016                             *
********************************************************************************
*  optimise     - perform optimisation run                                     *
*  conv         - constant volume calculation                                  *
*  phonon       - calculate phonons for final geometry                         *
*  compare      - compare initial and final structures                         *
*  nofrequency  - suppress frequency output after phonon calculation           *
********************************************************************************

  Job Started  at 20:34.43  7th March      2019                               

  Number of CPUs =     1


  Total number of configurations input =   1

********************************************************************************
*  Input for Configuration =   1                                               *
********************************************************************************

  Formula = Mo2Te4                                                      

  Number of irreducible atoms/shells =       6


  Total number atoms/shells =       6

  Dimensionality = 0               :  Cluster


  Charge on cluster =   0.000000


  Initial cluster dipoles : x =      0.000000 e.Angs
                            y =      0.000000 e.Angs
                            z =      0.000000 e.Angs

  Temperature of configuration =  0.000     K 

  Symmetry number =      1

  Cartesian coordinates of cluster :

--------------------------------------------------------------------------------
   No.  Atomic       x           y          z         Charge      Occupancy
        Label      (Angs)      (Angs)     (Angs)        (e)         (Frac)  
--------------------------------------------------------------------------------
      1 Mo1   c      0.0001      4.3950     10.1664     0.00000    1.000000    
      2 Mo2   c      1.6552 *    0.5542 *    9.9785 *   0.00000    1.000000    
      3 Te1   c      0.0001 *    2.0462 *   11.6800 *   0.00000    1.000000    
      4 Te2   c      1.6552 *    2.9029 *    8.4648 *   0.00000    1.000000    
      5 Te3   c      1.6552 *    5.0296 *   12.2060 *   0.00000    1.000000    
      6 Te4   c      0.0001 *    5.9535 *    7.9390 *   0.00000    1.000000    
--------------------------------------------------------------------------------



********************************************************************************
*  General input information                                                   *
********************************************************************************

  Species output for all configurations : 

--------------------------------------------------------------------------------
  Species    Type    Atomic    Atomic    Charge       Radii (Angs)     Library
                     Number     Mass       (e)     Cova   Ionic  VDW   Symbol
--------------------------------------------------------------------------------
    Mo1      Core       42      95.94   0.000000   1.470  0.000  2.190          
    Mo2      Core       42      95.94   0.000000   1.470  0.000  2.190          
    Te1      Core       52     127.60   0.000000   1.470  0.000  2.200          
    Te2      Core       52     127.60   0.000000   1.470  0.000  2.200          
    Te3      Core       52     127.60   0.000000   1.470  0.000  2.200          
    Te4      Core       52     127.60   0.000000   1.470  0.000  2.200          
--------------------------------------------------------------------------------


  Accuracy factor for short range sums = 12.000

  Time limit = Infinity

  Maximum range for interatomic potentials =    100000.000000 Angstroms

  General interatomic potentials :

--------------------------------------------------------------------------------
Atom  Types   Potential         A         B         C         D     Cutoffs(Ang)
  1     2                                                            Min    Max 
--------------------------------------------------------------------------------
Te1  c Te3  c Still-Weber 2  2.16      1.16      47.0      0.00     0.000  5.000
Te1  c Te4  c Still-Weber 2  2.16      1.16      47.0      0.00     0.000  5.000
Te2  c Te3  c Still-Weber 2  2.16      1.16      47.0      0.00     0.000  5.000
Te2  c Te4  c Still-Weber 2  2.16      1.16      47.0      0.00     0.000  5.000
Te1  c Te1  c Still-Weber 2  3.16      2.80      34.7      0.00     0.000  5.000
Te1  c Te2  c Still-Weber 2  3.16      2.80      34.7      0.00     0.000  5.000
Te2  c Te2  c Still-Weber 2  3.16      2.80      34.7      0.00     0.000  5.000
Te3  c Te3  c Still-Weber 2  2.50      2.36      87.5      0.00     0.000  5.000
Te3  c Te4  c Still-Weber 2  2.50      2.36      87.5      0.00     0.000  5.000
Te4  c Te4  c Still-Weber 2  2.50      2.36      87.5      0.00     0.000  5.000
Mo1  c Te1  c Still-Weber 2  3.46     0.681      28.3      0.00     0.000  3.750
Mo1  c Te2  c Still-Weber 2  3.46     0.681      28.3      0.00     0.000  3.750
Mo1  c Te3  c Still-Weber 2  8.11     0.390      10.9      0.00     0.000  3.750
Mo1  c Te4  c Still-Weber 2  8.11     0.390      10.9      0.00     0.000  3.750
Mo1  c Mo1  c Still-Weber 2  1.37     0.744      33.0      0.00     0.000  4.000
Mo2  c Te1  c Still-Weber 2  3.46     0.681      28.3      0.00     0.000  3.750
Mo2  c Te2  c Still-Weber 2  3.46     0.681      28.3      0.00     0.000  3.750
Mo2  c Te3  c Still-Weber 2  8.11     0.390      10.9      0.00     0.000  3.750
Mo2  c Te4  c Still-Weber 2  8.11     0.390      10.9      0.00     0.000  3.750
Mo2  c Mo2  c Still-Weber 2  1.37     0.744      33.0      0.00     0.000  4.000
Mo1  c Mo2  c Still-Weber 2  3.82     0.966      30.7      0.00     0.000  3.800
--------------------------------------------------------------------------------

  General Three-body potentials :

  Stillinger-Weber form:

--------------------------------------------------------------------------------
       Atom Types        Force Cst    Theta      Rhos           Cutoffs  
   1       2       3        (eV)                (Angs)     1-2    1-3    2-3  
--------------------------------------------------------------------------------
Mo2   c Te1   c Te3   c   15.92       84.050 1.404 1.997  0.000  0.000  0.000
                                                          3.750  3.750 14.200
Mo2   c Te1   c Te4   c   15.92       98.050 1.404 1.997  0.000  0.000  0.000
                                                          3.750  3.750 14.600
Mo2   c Te2   c Te3   c   15.92      156.500 1.404 1.997  0.000  0.000  0.000
                                                          3.750  3.750 15.900
Mo2   c Te2   c Te4   c   15.92       82.500 1.404 1.997  0.000  0.000  0.000
                                                          3.750  3.750 14.200
Mo2   c Te1   c Te2   c   32.19       77.450 1.211 1.211  0.000  0.000  0.000
                                                          3.750  3.750 14.000
Mo2   c Te1   c Te1   c   32.19       76.750 1.211 1.211  0.000  0.000  0.000
                                                          3.750  3.750 14.500
Mo2   c Te4   c Te4   c   21.01       80.150 2.480 2.480  0.000  0.000  0.000
                                                          3.750  3.750 14.500
Mo2   c Te3   c Te4   c   21.01      115.750 2.480 2.480  0.000  0.000  0.000
                                                          3.750  3.750 15.500
Te1   c Mo2   c Mo2   c   12.18       76.040 4.632 4.632  0.000  0.000  0.000
                                                          3.750  3.750 14.250
Te4   c Mo2   c Mo2   c   14.72       80.140 4.398 4.398  0.000  0.000  0.000
                                                          3.750  3.750 14.250
Mo1   c Te1   c Te3   c   15.92       82.500 1.404 1.997  0.000  0.000  0.000
                                                          3.750  3.750 14.200
Mo1   c Te1   c Te4   c   15.92      156.500 1.404 1.997  0.000  0.000  0.000
                                                          3.750  3.750 15.900
Mo1   c Te2   c Te3   c   15.92       98.050 1.404 1.997  0.000  0.000  0.000
                                                          3.750  3.750 14.600
Mo1   c Te2   c Te4   c   15.92       84.050 1.404 1.997  0.000  0.000  0.000
                                                          3.750  3.750 14.200
Mo1   c Te1   c Te2   c   32.19       77.450 1.211 1.211  0.000  0.000  0.000
                                                          3.750  3.750 14.000
Mo1   c Te2   c Te2   c   32.19       76.750 1.211 1.211  0.000  0.000  0.000
                                                          3.750  3.750 14.500
Mo1   c Te3   c Te3   c   21.01       80.150 2.480 2.480  0.000  0.000  0.000
                                                          3.750  3.750 14.500
Mo1   c Te3   c Te4   c   21.01      115.750 2.480 2.480  0.000  0.000  0.000
                                                          3.750  3.750 15.500
Te2   c Mo1   c Mo1   c   12.18       76.040 4.632 4.632  0.000  0.000  0.000
                                                          3.750  3.750 14.250
Te3   c Mo1   c Mo1   c   14.72       80.140 4.398 4.398  0.000  0.000  0.000
                                                          3.750  3.750 14.250
--------------------------------------------------------------------------------

********************************************************************************
*  Output for configuration   1                                                *
********************************************************************************


  Components of energy : 

--------------------------------------------------------------------------------
  Interatomic potentials     =         -14.54680455 eV
  Three-body potentials      =           0.06089193 eV
  Monopole - monopole (real) =           0.00000000 eV
--------------------------------------------------------------------------------
  Total lattice energy       =         -14.48591262 eV
--------------------------------------------------------------------------------
  Total lattice energy       =           -1397.6691 kJ/mol
--------------------------------------------------------------------------------


  Number of variables =       15

  Maximum number of calculations  =          1000
  Maximum Hessian update interval =            10
  Maximum step size               =   1.000000000
  Maximum parameter tolerance     =   0.000010000
  Maximum function  tolerance     =   0.000010000
  Maximum gradient  tolerance     =   0.001000000
  Maximum gradient  component     =   0.010000000

  Symmetry not applied to optimisation

  Newton-Raphson optimiser to be used

  BFGS hessian update to be used

  Start of cluster optimisation :

  Cycle:      0 Energy:       -14.485913  Gnorm:      0.098009  CPU:    0.004
  ** Hessian calculated **
  Cycle:      1 Energy:       -14.728508  Gnorm:      0.096979  CPU:    0.004
  ** Hessian calculated **
  Cycle:      2 Energy:       -14.987348  Gnorm:      0.013041  CPU:    0.005
  Cycle:      3 Energy:       -15.030286  Gnorm:      0.074294  CPU:    0.005
  Cycle:      4 Energy:       -15.088735  Gnorm:      0.059809  CPU:    0.005
  Cycle:      5 Energy:       -15.129163  Gnorm:      0.033342  CPU:    0.005
  Cycle:      6 Energy:       -15.148142  Gnorm:      0.013829  CPU:    0.005
  Cycle:      7 Energy:       -15.156801  Gnorm:      0.005845  CPU:    0.005
  Cycle:      8 Energy:       -15.158166  Gnorm:      0.003318  CPU:    0.005
  Cycle:      9 Energy:       -15.158361  Gnorm:      0.000452  CPU:    0.005


  **** Optimisation achieved ****


  Final energy =     -15.15836620 eV
  Final Gnorm  =       0.00012500

  Components of energy : 

--------------------------------------------------------------------------------
  Interatomic potentials     =         -15.28115914 eV
  Three-body potentials      =           0.12279294 eV
  Monopole - monopole (real) =           0.00000000 eV
--------------------------------------------------------------------------------
  Total lattice energy       =         -15.15836620 eV
--------------------------------------------------------------------------------
  Total lattice energy       =           -1462.5506 kJ/mol
--------------------------------------------------------------------------------

  Final cartesian coordinates of atoms :

--------------------------------------------------------------------------------
   No.  Atomic        x           y          z          Radius
        Label       (Angs)      (Angs)     (Angs)       (Angs) 
--------------------------------------------------------------------------------
     1  Mo1   c     0.000126    4.394970   10.166400    0.000000
     2  Mo2   c     2.370274    0.564370    9.054077    0.000000
     3  Te1   c     0.589277    1.708448   11.010492    0.000000
     4  Te2   c     1.860180    3.291984    8.274760    0.000000
     5  Te3   c     2.315782    4.743479   11.555648    0.000000
     6  Te4   c     0.747261    6.620548    8.788489    0.000000
--------------------------------------------------------------------------------


  Final Cartesian derivatives :

--------------------------------------------------------------------------------
   No.  Atomic          x             y             z           Radius
        Label       (eV/Angs)     (eV/Angs)    (eV/Angs)      (eV/Angs)
--------------------------------------------------------------------------------
      1 Mo1   c       0.000000      0.000000      0.000000      0.000000
      2 Mo2   c       0.000568     -0.000464     -0.000569      0.000000
      3 Te1   c      -0.000466      0.000470      0.000540      0.000000
      4 Te2   c       0.000044      0.000183      0.000279      0.000000
      5 Te3   c      -0.000877     -0.000197     -0.000902      0.000000
      6 Te4   c       0.000044     -0.000325      0.000286      0.000000
--------------------------------------------------------------------------------
  Maximum abs         0.000877      0.000470      0.000902      0.000000
--------------------------------------------------------------------------------

  Comparison of initial and final structures : 

--------------------------------------------------------------------------------
  Parameter   Initial value   Final value   Difference    Units      Percent
--------------------------------------------------------------------------------
      1 x          0.000126      0.000126     0.000000    Cartesian    0.00
      1 y          4.394970      4.394970     0.000000    Cartesian    0.00
      1 z         10.166400     10.166400     0.000000    Cartesian    0.00
      2 x          1.655180      2.370274     0.715094    Cartesian   43.20
      2 y          0.554190      0.564370     0.010180    Cartesian    1.84
      2 z          9.978520      9.054077    -0.924443    Cartesian   -9.26
      3 x          0.000121      0.589277     0.589156    Cartesian *******
      3 y          2.046250      1.708448    -0.337802    Cartesian  -16.51
      3 z         11.680000     11.010492    -0.669508    Cartesian   -5.73
      4 x          1.655170      1.860180     0.205010    Cartesian   12.39
      4 y          2.902920      3.291984     0.389064    Cartesian   13.40
      4 z          8.464760      8.274760    -0.190000    Cartesian   -2.24
      5 x          1.655180      2.315782     0.660602    Cartesian   39.91
      5 y          5.029560      4.743479    -0.286081    Cartesian   -5.69
      5 z         12.206000     11.555648    -0.650352    Cartesian   -5.33
      6 x          0.000125      0.747261     0.747136    Cartesian *******
      6 y          5.953450      6.620548     0.667098    Cartesian   11.21
      6 z          7.938950      8.788489     0.849539    Cartesian   10.70
--------------------------------------------------------------------------------



  Moment of inertia tensor (10^-46 x kgm^2): 

-------------------------------------------------------------------------------
                x           y           z           Principal axis system
-------------------------------------------------------------------------------
       x        633.68       54.31        7.08          259.860224
       y         54.31      269.04       20.20          546.433359
       z          7.08       20.20      546.21          642.627165
-------------------------------------------------------------------------------
  Centre of mass (Ang) =     1.325413     3.650829     9.826170
-------------------------------------------------------------------------------


  Vibrational Frequency Calculation : 

--------------------------------------------------------------------------------
  Vibrational properties (for cluster):  Temperature  =       0.000 K
--------------------------------------------------------------------------------
  Zero point energy             =         0.078114 eV
--------------------------------------------------------------------------------

  Vibrational density of states : 

--------------------------------------------------------------------------------
 Frequency     Density of States                                                
--------------------------------------------------------------------------------
    0.00000 |************************************************************  0.214
    4.00000 |                                                              0.000
    8.00000 |                                                              0.000
   12.00000 |                                                              0.000
   16.00000 |                                                              0.000
   20.00000 |                                                              0.000
   24.00000 |                                                              0.000
   28.00000 |                                                              0.000
   32.00000 |                                                              0.000
   36.00000 |                                                              0.000
   40.00000 |********************                                          0.071
   44.00000 |                                                              0.000
   48.00000 |********************                                          0.071
   52.00000 |                                                              0.000
   56.00000 |                                                              0.000
   60.00000 |                                                              0.000
   64.00000 |********************                                          0.071
   68.00000 |********************                                          0.071
   72.00000 |                                                              0.000
   76.00000 |                                                              0.000
   80.00000 |********************                                          0.071
   84.00000 |                                                              0.000
   88.00000 |                                                              0.000
   92.00000 |                                                              0.000
   96.00000 |                                                              0.000
  100.00000 |                                                              0.000
  104.00000 |********************                                          0.071
  108.00000 |                                                              0.000
  112.00000 |                                                              0.000
  116.00000 |                                                              0.000
  120.00000 |                                                              0.000
  124.00000 |                                                              0.000
  128.00000 |                                                              0.000
  132.00000 |                                                              0.000
  136.00000 |********************                                          0.071
  140.00000 |                                                              0.000
  144.00000 |                                                              0.000
  148.00000 |********************                                          0.071
  152.00000 |                                                              0.000
  156.00000 |                                                              0.000
  160.00000 |                                                              0.000
  164.00000 |********************                                          0.071
  168.00000 |                                                              0.000
  172.00000 |                                                              0.000
  176.00000 |                                                              0.000
  180.00000 |                                                              0.000
  184.00000 |                                                              0.000
  188.00000 |********************                                          0.071
  192.00000 |                                                              0.000
  196.00000 |                                                              0.000
  200.00000 |                                                              0.000
  204.00000 |********************                                          0.071
  208.00000 |                                                              0.000
  212.00000 |                                                              0.000
  216.00000 |                                                              0.000
  220.00000 |                                                              0.000
  224.00000 |                                                              0.000
  228.00000 |                                                              0.000
  232.00000 |                                                              0.000
  236.00000 |                                                              0.000
  240.00000 |                                                              0.000
  244.00000 |                                                              0.000
  248.00000 |                                                              0.000
  252.00000 |                                                              0.000
--------------------------------------------------------------------------------



  Time to end of optimisation =       0.0067 seconds


  Peak dynamic memory used =       0.51 MB 


  Timing analysis for GULP :

--------------------------------------------------------------------------------
  Task / Subroutine                                          Time (Seconds)
--------------------------------------------------------------------------------
  Calculation of real space energy and derivatives                0.0005
  Calculation of three-body energy and derivatives                0.0005
  Calculation of phonons                                          0.0007
  Calculation of scattering                                       0.0000
--------------------------------------------------------------------------------
  Total CPU time                                                  0.0068
--------------------------------------------------------------------------------


  Job Finished at 20:34.43  7th March      2019                               

