********************************************************************************
*                       GENERAL UTILITY LATTICE PROGRAM                        *
*                                 Julian Gale                                  *
*                      Nanochemistry Research Institute                        *
*                           Department of Chemistry                            *
*                    Curtin University, Western Australia                      *
********************************************************************************
* Version = 4.4.2 * Last modified = 20th June 2016                             *
********************************************************************************
*  optimise     - perform optimisation run                                     *
*  conp         - constant pressure calculation                                *
*  phonon       - calculate phonons for final geometry                         *
*  compare      - compare initial and final structures                         *
*  nofrequency  - suppress frequency output after phonon calculation           *
********************************************************************************

  Job Started  at 12:57.30  8th March      2019                               

  Number of CPUs =     1


  Total number of configurations input =   1

********************************************************************************
*  Input for Configuration =   1                                               *
********************************************************************************

  Formula = Mo2Te4                                                      

  Number of irreducible atoms/shells =       6


  Total number atoms/shells =       6

  Dimensionality = 3               :  Bulk   



  Cartesian lattice vectors (Angstroms) :

        3.310100    0.000000    0.000000
        2.000000    6.033900    0.000000
        0.000000    0.000000   20.145200

  Cell parameters (Angstroms/Degrees):

  a =       3.3101    alpha =  90.0000
  b =       6.3567    beta  =  90.0000
  c =      20.1452    gamma =  71.6617

  Initial cell volume =         402.356300 Angs**3

  Shrinking factors =      5     5     5

  Temperature of configuration =  0.000     K 

  Pressure of configuration =         0.000 GPa 

  Fractional coordinates of asymmetric unit :

--------------------------------------------------------------------------------
   No.  Atomic       x           y          z         Charge      Occupancy
        Label      (Frac)      (Frac)     (Frac)        (e)         (Frac)  
--------------------------------------------------------------------------------
      1 Mo1   c    0.000038    0.728380    0.504656     0.00000    1.000000    
      2 Mo2   c    0.500038 *  0.091846 *  0.495330 *   0.00000    1.000000    
      3 Te1   c    0.000036 *  0.339125 *  0.579792 *   0.00000    1.000000    
      4 Te2   c    0.500037 *  0.481103 *  0.420188 *   0.00000    1.000000    
      5 Te3   c    0.500039 *  0.833551 *  0.605902 *   0.00000    1.000000    
      6 Te4   c    0.000038 *  0.986667 *  0.394086 *   0.00000    1.000000    
--------------------------------------------------------------------------------


  Brillouin zone sampling points :

--------------------------------------------------------------------------------
  Point number          x          y          z            Weight
--------------------------------------------------------------------------------
        1           0.000000   0.000000   0.000000         0.0069
        2           0.000000   0.006173   0.000000         0.0069
        3           0.000000   0.012346   0.000000         0.0069
        4           0.000000   0.018519   0.000000         0.0069
        5           0.000000   0.024691   0.000000         0.0069
        6           0.000000   0.030864   0.000000         0.0069
        7           0.000000   0.037037   0.000000         0.0069
        8           0.000000   0.043210   0.000000         0.0069
        9           0.000000   0.049383   0.000000         0.0069
       10           0.000000   0.055556   0.000000         0.0069
       11           0.000000   0.061728   0.000000         0.0069
       12           0.000000   0.067901   0.000000         0.0069
       13           0.000000   0.074074   0.000000         0.0069
       14           0.000000   0.080247   0.000000         0.0069
       15           0.000000   0.086420   0.000000         0.0069
       16           0.000000   0.092593   0.000000         0.0069
       17           0.000000   0.098765   0.000000         0.0069
       18           0.000000   0.104938   0.000000         0.0069
       19           0.000000   0.111111   0.000000         0.0069
       20           0.000000   0.117284   0.000000         0.0069
       21           0.000000   0.123457   0.000000         0.0069
       22           0.000000   0.129630   0.000000         0.0069
       23           0.000000   0.135802   0.000000         0.0069
       24           0.000000   0.141975   0.000000         0.0069
       25           0.000000   0.148148   0.000000         0.0069
       26           0.000000   0.154321   0.000000         0.0069
       27           0.000000   0.160494   0.000000         0.0069
       28           0.000000   0.166667   0.000000         0.0069
       29           0.000000   0.172840   0.000000         0.0069
       30           0.000000   0.179012   0.000000         0.0069
       31           0.000000   0.185185   0.000000         0.0069
       32           0.000000   0.191358   0.000000         0.0069
       33           0.000000   0.197531   0.000000         0.0069
       34           0.000000   0.203704   0.000000         0.0069
       35           0.000000   0.209877   0.000000         0.0069
       36           0.000000   0.216049   0.000000         0.0069
       37           0.000000   0.222222   0.000000         0.0069
       38           0.000000   0.228395   0.000000         0.0069
       39           0.000000   0.234568   0.000000         0.0069
       40           0.000000   0.240741   0.000000         0.0069
       41           0.000000   0.246914   0.000000         0.0069
       42           0.000000   0.253086   0.000000         0.0069
       43           0.000000   0.259259   0.000000         0.0069
       44           0.000000   0.265432   0.000000         0.0069
       45           0.000000   0.271605   0.000000         0.0069
       46           0.000000   0.277778   0.000000         0.0069
       47           0.000000   0.283951   0.000000         0.0069
       48           0.000000   0.290123   0.000000         0.0069
       49           0.000000   0.296296   0.000000         0.0069
       50           0.000000   0.302469   0.000000         0.0069
       51           0.000000   0.308642   0.000000         0.0069
       52           0.000000   0.314815   0.000000         0.0069
       53           0.000000   0.320988   0.000000         0.0069
       54           0.000000   0.327160   0.000000         0.0069
       55           0.000000   0.333333   0.000000         0.0069
       56           0.000000   0.339506   0.000000         0.0069
       57           0.000000   0.345679   0.000000         0.0069
       58           0.000000   0.351852   0.000000         0.0069
       59           0.000000   0.358025   0.000000         0.0069
       60           0.000000   0.364198   0.000000         0.0069
       61           0.000000   0.370370   0.000000         0.0069
       62           0.000000   0.376543   0.000000         0.0069
       63           0.000000   0.382716   0.000000         0.0069
       64           0.000000   0.388889   0.000000         0.0069
       65           0.000000   0.395062   0.000000         0.0069
       66           0.000000   0.401235   0.000000         0.0069
       67           0.000000   0.407407   0.000000         0.0069
       68           0.000000   0.413580   0.000000         0.0069
       69           0.000000   0.419753   0.000000         0.0069
       70           0.000000   0.425926   0.000000         0.0069
       71           0.000000   0.432099   0.000000         0.0069
       72           0.000000   0.438272   0.000000         0.0069
       73           0.000000   0.444444   0.000000         0.0069
       74           0.000000   0.450617   0.000000         0.0069
       75           0.000000   0.456790   0.000000         0.0069
       76           0.000000   0.462963   0.000000         0.0069
       77           0.000000   0.469136   0.000000         0.0069
       78           0.000000   0.475309   0.000000         0.0069
       79           0.000000   0.481481   0.000000         0.0069
       80           0.000000   0.487654   0.000000         0.0069
       81           0.000000   0.493827   0.000000         0.0069
       82           0.000000   0.500000   0.000000         0.0069
       83           0.100000   0.100000   0.100000         0.0069
       84           0.100000   0.100000   0.300000         0.0069
       85           0.100000   0.100000   0.500000         0.0069
       86           0.100000   0.100000   0.700000         0.0069
       87           0.100000   0.100000   0.900000         0.0069
       88           0.100000   0.300000   0.100000         0.0069
       89           0.100000   0.300000   0.300000         0.0069
       90           0.100000   0.300000   0.500000         0.0069
       91           0.100000   0.300000   0.700000         0.0069
       92           0.100000   0.300000   0.900000         0.0069
       93           0.100000   0.500000   0.100000         0.0069
       94           0.100000   0.500000   0.300000         0.0069
       95           0.100000   0.500000   0.500000         0.0069
       96           0.100000   0.500000   0.700000         0.0069
       97           0.100000   0.500000   0.900000         0.0069
       98           0.100000   0.700000   0.100000         0.0069
       99           0.100000   0.700000   0.300000         0.0069
      100           0.100000   0.700000   0.500000         0.0069
      101           0.100000   0.700000   0.700000         0.0069
      102           0.100000   0.700000   0.900000         0.0069
      103           0.100000   0.900000   0.100000         0.0069
      104           0.100000   0.900000   0.300000         0.0069
      105           0.100000   0.900000   0.500000         0.0069
      106           0.100000   0.900000   0.700000         0.0069
      107           0.100000   0.900000   0.900000         0.0069
      108           0.300000   0.100000   0.100000         0.0069
      109           0.300000   0.100000   0.300000         0.0069
      110           0.300000   0.100000   0.500000         0.0069
      111           0.300000   0.100000   0.700000         0.0069
      112           0.300000   0.100000   0.900000         0.0069
      113           0.300000   0.300000   0.100000         0.0069
      114           0.300000   0.300000   0.300000         0.0069
      115           0.300000   0.300000   0.500000         0.0069
      116           0.300000   0.300000   0.700000         0.0069
      117           0.300000   0.300000   0.900000         0.0069
      118           0.300000   0.500000   0.100000         0.0069
      119           0.300000   0.500000   0.300000         0.0069
      120           0.300000   0.500000   0.500000         0.0069
      121           0.300000   0.500000   0.700000         0.0069
      122           0.300000   0.500000   0.900000         0.0069
      123           0.300000   0.700000   0.100000         0.0069
      124           0.300000   0.700000   0.300000         0.0069
      125           0.300000   0.700000   0.500000         0.0069
      126           0.300000   0.700000   0.700000         0.0069
      127           0.300000   0.700000   0.900000         0.0069
      128           0.300000   0.900000   0.100000         0.0069
      129           0.300000   0.900000   0.300000         0.0069
      130           0.300000   0.900000   0.500000         0.0069
      131           0.300000   0.900000   0.700000         0.0069
      132           0.300000   0.900000   0.900000         0.0069
      133           0.500000   0.100000   0.100000         0.0035
      134           0.500000   0.100000   0.300000         0.0035
      135           0.500000   0.100000   0.500000         0.0035
      136           0.500000   0.100000   0.700000         0.0035
      137           0.500000   0.100000   0.900000         0.0035
      138           0.500000   0.300000   0.100000         0.0035
      139           0.500000   0.300000   0.300000         0.0035
      140           0.500000   0.300000   0.500000         0.0035
      141           0.500000   0.300000   0.700000         0.0035
      142           0.500000   0.300000   0.900000         0.0035
      143           0.500000   0.500000   0.100000         0.0035
      144           0.500000   0.500000   0.300000         0.0035
      145           0.500000   0.500000   0.500000         0.0035
      146           0.500000   0.500000   0.700000         0.0035
      147           0.500000   0.500000   0.900000         0.0035
      148           0.500000   0.700000   0.100000         0.0035
      149           0.500000   0.700000   0.300000         0.0035
      150           0.500000   0.700000   0.500000         0.0035
      151           0.500000   0.700000   0.700000         0.0035
      152           0.500000   0.700000   0.900000         0.0035
      153           0.500000   0.900000   0.100000         0.0035
      154           0.500000   0.900000   0.300000         0.0035
      155           0.500000   0.900000   0.500000         0.0035
      156           0.500000   0.900000   0.700000         0.0035
      157           0.500000   0.900000   0.900000         0.0035
--------------------------------------------------------------------------------


********************************************************************************
*  General input information                                                   *
********************************************************************************

  Species output for all configurations : 

--------------------------------------------------------------------------------
  Species    Type    Atomic    Atomic    Charge       Radii (Angs)     Library
                     Number     Mass       (e)     Cova   Ionic  VDW   Symbol
--------------------------------------------------------------------------------
    Mo1      Core       42      95.94   0.000000   1.470  0.000  2.190          
    Mo2      Core       42      95.94   0.000000   1.470  0.000  2.190          
    Te1      Core       52     127.60   0.000000   1.470  0.000  2.200          
    Te2      Core       52     127.60   0.000000   1.470  0.000  2.200          
    Te3      Core       52     127.60   0.000000   1.470  0.000  2.200          
    Te4      Core       52     127.60   0.000000   1.470  0.000  2.200          
--------------------------------------------------------------------------------


  Lattice summation method               =    Ewald          (3-D)
                                         =    Parry          (2-D)
                                         =    Saunders et al (1-D)
  Accuracy factor for lattice sums       =   12.000


  Time limit = Infinity

  Maximum range for interatomic potentials =    100000.000000 Angstroms

  General interatomic potentials :

--------------------------------------------------------------------------------
Atom  Types   Potential         A         B         C         D     Cutoffs(Ang)
  1     2                                                            Min    Max 
--------------------------------------------------------------------------------
Te1  c Te3  c Still-Weber 2  2.16      1.16      47.0      0.00     0.000  5.000
Te1  c Te4  c Still-Weber 2  2.16      1.16      47.0      0.00     0.000  5.000
Te2  c Te3  c Still-Weber 2  2.16      1.16      47.0      0.00     0.000  5.000
Te2  c Te4  c Still-Weber 2  2.16      1.16      47.0      0.00     0.000  5.000
Te1  c Te1  c Still-Weber 2  3.16      2.80      34.7      0.00     0.000  5.000
Te1  c Te2  c Still-Weber 2  3.16      2.80      34.7      0.00     0.000  5.000
Te2  c Te2  c Still-Weber 2  3.16      2.80      34.7      0.00     0.000  5.000
Te3  c Te3  c Still-Weber 2  2.50      2.36      87.5      0.00     0.000  5.000
Te3  c Te4  c Still-Weber 2  2.50      2.36      87.5      0.00     0.000  5.000
Te4  c Te4  c Still-Weber 2  2.50      2.36      87.5      0.00     0.000  5.000
Mo1  c Te1  c Still-Weber 2  3.46     0.681      28.3      0.00     0.000  3.750
Mo1  c Te2  c Still-Weber 2  3.46     0.681      28.3      0.00     0.000  3.750
Mo1  c Te3  c Still-Weber 2  8.11     0.390      10.9      0.00     0.000  3.750
Mo1  c Te4  c Still-Weber 2  8.11     0.390      10.9      0.00     0.000  3.750
Mo1  c Mo1  c Still-Weber 2  1.37     0.744      33.0      0.00     0.000  4.000
Mo2  c Te1  c Still-Weber 2  3.46     0.681      28.3      0.00     0.000  3.750
Mo2  c Te2  c Still-Weber 2  3.46     0.681      28.3      0.00     0.000  3.750
Mo2  c Te3  c Still-Weber 2  8.11     0.390      10.9      0.00     0.000  3.750
Mo2  c Te4  c Still-Weber 2  8.11     0.390      10.9      0.00     0.000  3.750
Mo2  c Mo2  c Still-Weber 2  1.37     0.744      33.0      0.00     0.000  4.000
Mo1  c Mo2  c Still-Weber 2  3.82     0.966      30.7      0.00     0.000  3.800
--------------------------------------------------------------------------------

  General Three-body potentials :

  Stillinger-Weber form:

--------------------------------------------------------------------------------
       Atom Types        Force Cst    Theta      Rhos           Cutoffs  
   1       2       3        (eV)                (Angs)     1-2    1-3    2-3  
--------------------------------------------------------------------------------
Mo2   c Te1   c Te3   c   15.92       84.050 1.404 1.997  0.000  0.000  0.000
                                                          3.750  3.750 14.200
Mo2   c Te1   c Te4   c   15.92       98.050 1.404 1.997  0.000  0.000  0.000
                                                          3.750  3.750 14.600
Mo2   c Te2   c Te3   c   15.92      156.500 1.404 1.997  0.000  0.000  0.000
                                                          3.750  3.750 15.900
Mo2   c Te2   c Te4   c   15.92       82.500 1.404 1.997  0.000  0.000  0.000
                                                          3.750  3.750 14.200
Mo2   c Te1   c Te2   c   32.19       77.450 1.211 1.211  0.000  0.000  0.000
                                                          3.750  3.750 14.000
Mo2   c Te1   c Te1   c   32.19       76.750 1.211 1.211  0.000  0.000  0.000
                                                          3.750  3.750 14.500
Mo2   c Te4   c Te4   c   21.01       80.150 2.480 2.480  0.000  0.000  0.000
                                                          3.750  3.750 14.500
Mo2   c Te3   c Te4   c   21.01      115.750 2.480 2.480  0.000  0.000  0.000
                                                          3.750  3.750 15.500
Te1   c Mo2   c Mo2   c   12.18       76.040 4.632 4.632  0.000  0.000  0.000
                                                          3.750  3.750 14.250
Te4   c Mo2   c Mo2   c   14.72       80.140 4.398 4.398  0.000  0.000  0.000
                                                          3.750  3.750 14.250
Mo1   c Te1   c Te3   c   15.92       82.500 1.404 1.997  0.000  0.000  0.000
                                                          3.750  3.750 14.200
Mo1   c Te1   c Te4   c   15.92      156.500 1.404 1.997  0.000  0.000  0.000
                                                          3.750  3.750 15.900
Mo1   c Te2   c Te3   c   15.92       98.050 1.404 1.997  0.000  0.000  0.000
                                                          3.750  3.750 14.600
Mo1   c Te2   c Te4   c   15.92       84.050 1.404 1.997  0.000  0.000  0.000
                                                          3.750  3.750 14.200
Mo1   c Te1   c Te2   c   32.19       77.450 1.211 1.211  0.000  0.000  0.000
                                                          3.750  3.750 14.000
Mo1   c Te2   c Te2   c   32.19       76.750 1.211 1.211  0.000  0.000  0.000
                                                          3.750  3.750 14.500
Mo1   c Te3   c Te3   c   21.01       80.150 2.480 2.480  0.000  0.000  0.000
                                                          3.750  3.750 14.500
Mo1   c Te3   c Te4   c   21.01      115.750 2.480 2.480  0.000  0.000  0.000
                                                          3.750  3.750 15.500
Te2   c Mo1   c Mo1   c   12.18       76.040 4.632 4.632  0.000  0.000  0.000
                                                          3.750  3.750 14.250
Te3   c Mo1   c Mo1   c   14.72       80.140 4.398 4.398  0.000  0.000  0.000
                                                          3.750  3.750 14.250
--------------------------------------------------------------------------------

********************************************************************************
*  Output for configuration   1                                                *
********************************************************************************


  Components of energy : 

--------------------------------------------------------------------------------
  Interatomic potentials     =         -39.33179226 eV
  Three-body potentials      =           1.85364239 eV
  Monopole - monopole (real) =           0.00000000 eV
  Monopole - monopole (recip)=           0.00000000 eV
  Monopole - monopole (total)=           0.00000000 eV
--------------------------------------------------------------------------------
  Total lattice energy       =         -37.47814987 eV
--------------------------------------------------------------------------------
  Total lattice energy       =           -3616.0686 kJ/(mole unit cells)
--------------------------------------------------------------------------------


  Number of variables =       21

  Maximum number of calculations  =          1000
  Maximum Hessian update interval =            10
  Maximum step size               =   1.000000000
  Maximum parameter tolerance     =   0.000010000
  Maximum function  tolerance     =   0.000010000
  Maximum gradient  tolerance     =   0.001000000
  Maximum gradient  component     =   0.010000000

  Symmetry not applied to optimisation

  Cell parameters to be optimised using strains

  Newton-Raphson optimiser to be used

  BFGS hessian update to be used

  Start of bulk optimisation :

  Cycle:      0 Energy:       -37.478150  Gnorm:      1.615642  CPU:    0.005
  ** Hessian calculated **
  Cycle:      1 Energy:       -40.913941  Gnorm:      1.638343  CPU:    0.007
  ** Hessian calculated **
  Cycle:      2 Energy:       -41.213016  Gnorm:      0.214246  CPU:    0.011
  Cycle:      3 Energy:       -41.221080  Gnorm:      0.135028  CPU:    0.012
  ** Hessian calculated **
  Cycle:      4 Energy:       -41.224365  Gnorm:      0.032573  CPU:    0.013
  Cycle:      5 Energy:       -41.224581  Gnorm:      0.013205  CPU:    0.014
  Cycle:      6 Energy:       -41.224594  Gnorm:      0.001223  CPU:    0.015


  **** Optimisation achieved ****


  Final energy =     -41.22459496 eV
  Final Gnorm  =       0.00053194

  Components of energy : 

--------------------------------------------------------------------------------
  Interatomic potentials     =         -42.34567281 eV
  Three-body potentials      =           1.12107785 eV
  Monopole - monopole (real) =           0.00000000 eV
  Monopole - monopole (recip)=           0.00000000 eV
  Monopole - monopole (total)=           0.00000000 eV
--------------------------------------------------------------------------------
  Total lattice energy       =         -41.22459496 eV
--------------------------------------------------------------------------------
  Total lattice energy       =           -3977.5432 kJ/(mole unit cells)
--------------------------------------------------------------------------------

  Final fractional coordinates of atoms :

--------------------------------------------------------------------------------
   No.  Atomic        x           y          z          Radius
        Label       (Frac)      (Frac)     (Frac)       (Angs) 
--------------------------------------------------------------------------------
     1  Mo1   c     0.000038    0.728380    0.504656    0.000000
     2  Mo2   c     0.495246    0.064120    0.497914    0.000000
     3  Te1   c     0.057489    0.342488    0.585500    0.000000
     4  Te2   c     0.437795    0.450013    0.417070    0.000000
     5  Te3   c     0.586916    0.825087    0.626903    0.000000
     6  Te4   c     0.908368    0.967414    0.375668    0.000000
--------------------------------------------------------------------------------

  Final Cartesian lattice vectors (Angstroms) :

        3.387844   -0.560921   -0.224404
        1.024484    6.247044   -0.150098
       -1.365720   -0.048445   17.009181


  Final cell parameters and derivatives :

--------------------------------------------------------------------------------
       a            3.441290 Angstrom     dE/de1(xx)    -0.001779 eV/strain
       b            6.332271 Angstrom     dE/de2(yy)    -0.002696 eV/strain
       c           17.063990 Angstrom     dE/de3(zz)    -0.002190 eV/strain
       alpha       92.256722 Degrees      dE/de4(yz)    -0.000161 eV/strain
       beta        98.240548 Degrees      dE/de5(xz)    -0.000176 eV/strain
       gamma       89.999013 Degrees      dE/de6(xy)     0.000714 eV/strain
--------------------------------------------------------------------------------

  Primitive cell volume =           367.713865 Angs**3

  Density of cell =      3.171439 g/cm**3

  Non-primitive cell volume =           367.713865 Angs**3


  Final internal derivatives :

--------------------------------------------------------------------------------
   No.  Atomic          a             b             c           Radius
        Label          (eV)          (eV)          (eV)        (eV/Angs)
--------------------------------------------------------------------------------
      1 Mo1   c       0.000000      0.000000      0.000000      0.000000
      2 Mo2   c       0.000222     -0.000646     -0.000940      0.000000
      3 Te1   c      -0.000083     -0.000289     -0.003267      0.000000
      4 Te2   c       0.000083      0.000289      0.003267      0.000000
      5 Te3   c      -0.000033     -0.000031     -0.006562      0.000000
      6 Te4   c       0.000033      0.000031      0.006562      0.000000
--------------------------------------------------------------------------------
  Maximum abs         0.000222      0.000646      0.006562      0.000000
--------------------------------------------------------------------------------

  Comparison of initial and final structures : 

--------------------------------------------------------------------------------
  Parameter   Initial value   Final value   Difference    Units      Percent
--------------------------------------------------------------------------------
    Volume       402.356300    367.713865   -34.642435    Angs**3     -8.61
    a              3.310100      3.441290     0.131190    Angstroms    3.96
    b              6.356725      6.332271    -0.024454    Angstroms   -0.38
    c             20.145200     17.063990    -3.081210    Angstroms  -15.30
    alpha         90.000000     92.256722     2.256722    Degrees      2.51
    beta          90.000000     98.240548     8.240548    Degrees      9.16
    gamma         71.661676     89.999013    18.337337    Degrees     25.59
      1 x          0.000038      0.000038     0.000000    Fractional   0.00
      1 y          0.728380      0.728380     0.000000    Fractional   0.00
      1 z          0.504656      0.504656     0.000000    Fractional   0.00
      2 x          0.500038      0.495246     0.004793    Fractional   0.96
      2 y          0.091846      0.064120     0.027726    Fractional  30.19
      2 z          0.495330      0.497914     0.002584    Fractional   0.52
      3 x          0.000036      0.057489     0.057453    Fractional*******
      3 y          0.339125      0.342488     0.003362    Fractional   0.99
      3 z          0.579792      0.585500     0.005708    Fractional   0.98
      4 x          0.500037      0.437795     0.062243    Fractional  12.45
      4 y          0.481103      0.450013     0.031090    Fractional   6.46
      4 z          0.420188      0.417070     0.003117    Fractional   0.74
      5 x          0.500039      0.586916     0.086877    Fractional  17.37
      5 y          0.833551      0.825087     0.008464    Fractional   1.02
      5 z          0.605902      0.626903     0.021001    Fractional   3.47
      6 x          0.000038      0.908368     0.091670    Fractional   9.17
      6 y          0.986667      0.967414     0.019254    Fractional   1.95
      6 z          0.394086      0.375668     0.018418    Fractional   4.67
--------------------------------------------------------------------------------



  Elastic Constant Matrix: (Units=GPa)

-------------------------------------------------------------------------------
  Indices      1         2         3         4         5         6    
-------------------------------------------------------------------------------
       1     52.8444   18.1979    0.2523   -0.3096   -3.6267    1.1181
       2     18.1979   62.5210    0.0963   -0.8238   -1.2482    0.3291
       3      0.2523    0.0963    0.0022   -0.0041   -0.0177    0.0417
       4     -0.3096   -0.8238   -0.0041    0.1077    0.0396   -1.4233
       5     -3.6267   -1.2482   -0.0177    0.0396    0.2524   -0.3424
       6      1.1181    0.3291    0.0417   -1.4233   -0.3424   20.7590
-------------------------------------------------------------------------------


  Elastic Compliance Matrix: (Units=1/GPa)

-------------------------------------------------------------------------------
  Indices      1         2         3         4         5         6    
-------------------------------------------------------------------------------
       1   13.649814  3.882087-12.703634303.222867198.510898 23.293225
       2    3.882087 -0.443376 -3.262537-36.021936 56.655443 -1.730688
       3  -12.703634 -3.262537******************************-19.756204
       4  303.222867-36.021936****************************************
       5  198.510898 56.655443******************************339.410577
       6   23.293225 -1.730688-19.756204**********339.410577 -4.815926
-------------------------------------------------------------------------------

  Mechanical properties :

-------------------------------------------------------------------------------
  Convention :                    Reuss         Voigt         Hill
-------------------------------------------------------------------------------
  Bulk  Modulus (GPa)     =       0.00096      16.94006       8.47051
  Shear Modulus (GPa)     =       0.00332      10.67858       5.34095
-------------------------------------------------------------------------------
  Velocity S-wave (km/s)  =       0.03233       1.83497       1.29772
  Velocity P-wave (km/s)  =       0.04121       3.13543       2.21728
-------------------------------------------------------------------------------
  Compressibility (1/GPa) = 1036.27443829
-------------------------------------------------------------------------------
  Stress axis :                     x             y             z
-------------------------------------------------------------------------------
  Youngs Moduli (GPa)     =       0.07326      -2.25542       0.00095
-------------------------------------------------------------------------------
  Poissons Ratio (x)      =                     8.75574       0.01213
  Poissons Ratio (y)      =      -0.28441                     0.00312
  Poissons Ratio (z)      =       0.93068      -7.35839
-------------------------------------------------------------------------------


  Piezoelectric Strain Matrix: (Units=C/m**2)

-------------------------------------------------------------------------------
  Indices      1         2         3         4         5         6    
-------------------------------------------------------------------------------
       x    -0.00000  -0.00000  -0.00000  -0.00000  -0.00000  -0.00000
       y    -0.00000  -0.00000  -0.00000  -0.00000  -0.00000  -0.00000
       z    -0.00000  -0.00000  -0.00000  -0.00000  -0.00000  -0.00000
-------------------------------------------------------------------------------


  Piezoelectric Stress Matrix: (Units=10**-11 C/N)

-------------------------------------------------------------------------------
  Indices      1         2         3         4         5         6    
-------------------------------------------------------------------------------
       x     0.00000   0.00000   0.00000   0.00000   0.00000   0.00000
       y     0.00000   0.00000   0.00000   0.00000   0.00000   0.00000
       z     0.00000   0.00000   0.00000   0.00000   0.00000   0.00000
-------------------------------------------------------------------------------


  Static dielectric constant tensor : 

-------------------------------------------------------------------------------
              x         y         z
-------------------------------------------------------------------------------
       x     1.00000   0.00000   0.00000
       y     0.00000   1.00000   0.00000
       z     0.00000   0.00000   1.00000
--------------------------------------------------------------------------------

  Static refractive indices : 

-------------------------------------------------------------------------------
    1 =    1.00000      2 =    1.00000      3 =    1.00000
-------------------------------------------------------------------------------


  Phonon Calculation : 

  K direction for n-a correction at gamma =  1.00000  1.00000  1.00000

  Number of k points for this configuration =      157

--------------------------------------------------------------------------------
  Phonon properties (per mole of unit cells): Temperature =      0.000 K
--------------------------------------------------------------------------------
  Zero point energy            =        0.158213 eV
--------------------------------------------------------------------------------

  Phonon density of states : 

--------------------------------------------------------------------------------
 Frequency (cm-1) Density of States                                             
--------------------------------------------------------------------------------
    0.00000 |                                                              0.000
    4.17024 |                                                              0.000
    8.34048 |*******                                                       0.009
   12.51073 |                                                              0.000
   16.68097 |                                                              0.000
   20.85121 |                                                              0.000
   25.02145 |**************                                                0.018
   29.19170 |                                                              0.000
   33.36194 |                                                              0.000
   37.53218 |                                                              0.000
   41.70242 |*******                                                       0.009
   45.87267 |**************                                                0.018
   50.04291 |*******                                                       0.009
   54.21315 |                                                              0.000
   58.38339 |*******                                                       0.009
   62.55364 |                                                              0.000
   66.72388 |*******                                                       0.009
   70.89412 |**************************                                    0.031
   75.06436 |***********                                                   0.013
   79.23460 |***********                                                   0.013
   83.40485 |*************************************                         0.044
   87.57509 |******************                                            0.022
   91.74533 |*******                                                       0.009
   95.91557 |*******                                                       0.009
  100.08582 |*****************************************                     0.049
  104.25606 |                                                              0.000
  108.42630 |**************************                                    0.031
  112.59654 |***********************************************************   0.071
  116.76679 |**********************                                        0.027
  120.93703 |******************                                            0.022
  125.10727 |******************                                            0.022
  129.27751 |*****************************                                 0.036
  133.44776 |**************************                                    0.031
  137.61800 |***                                                           0.004
  141.78824 |**************                                                0.018
  145.95848 |*************************************                         0.044
  150.12873 |**************                                                0.018
  154.29897 |*********************************                             0.040
  158.46921 |**************************                                    0.031
  162.63945 |                                                              0.000
  166.80969 |                                                              0.000
  170.97994 |                                                              0.000
  175.15018 |**************                                                0.018
  179.32042 |***********                                                   0.013
  183.49066 |**************                                                0.018
  187.66091 |*******                                                       0.009
  191.83115 |**************                                                0.018
  196.00139 |******************                                            0.022
  200.17163 |***********                                                   0.013
  204.34188 |                                                              0.000
  208.51212 |***********                                                   0.013
  212.68236 |**********************                                        0.027
  216.85260 |**********************                                        0.027
  221.02285 |                                                              0.000
  225.19309 |**************                                                0.018
  229.36333 |**********************                                        0.027
  233.53357 |                                                              0.000
  237.70381 |                                                              0.000
  241.87406 |                                                              0.000
  246.04430 |                                                              0.000
  250.21454 |                                                              0.000
  254.38478 |**************************                                    0.031
  258.55503 |************************************************              0.058
  262.72527 |******************                                            0.022
--------------------------------------------------------------------------------




  Phonon density of states written as phonon.dens                   



  Phonon dispersion curves : 

--------------------------------------------------------------------------------
  Section number =   1
--------------------------------------------------------------------------------
  Frequency (cm-1) Phonon dispersion                                            
--------------------------------------------------------------------------------
   262.02   |                                           *****************
   251.10   |************************************************************
   240.19   |                                                            
   229.27   |                                                            
   218.35   |                                                            
   207.43   |************************************************************
   196.52   |***********************                                     
   185.60   |                      ***********************               
   174.68   |                                             ***************
   163.76   |************************************************************
   152.85   |                                          ******************
   141.93   |******************************************                  
   131.01   |*******************************                             
   120.09   |                               ***********************      
   109.18   |************************************************************
    98.26   |*****************************************            *******
    87.34   |*******************************                **********   
    76.42   |           ***************************************          
    65.51   |                                   *******       ***********
    54.59   |                             *******      ************ *****
    43.67   |                      *******           ********************
    32.75   |                 ******       **********      **********    
    21.84   |           ******  ***********      **********              
    10.92   |      **************    ************                        
     0.00   |************************                                    
--------------------------------------------------------------------------------


  Phonon dispersion written as phonon.disp                   

  Time to end of optimisation =       0.0569 seconds


  Peak dynamic memory used =       0.55 MB 


  Timing analysis for GULP :

--------------------------------------------------------------------------------
  Task / Subroutine                                          Time (Seconds)
--------------------------------------------------------------------------------
  Calculation of real space energy and derivatives                0.0212
  Calculation of three-body energy and derivatives                0.0196
  Calculation of phonons                                          0.0392
  Calculation of scattering                                       0.0000
  Calculation of matrix inversion                                 0.0001
  Disk read/write operations to scratch files                     0.0001
--------------------------------------------------------------------------------
  Total CPU time                                                  0.0569
--------------------------------------------------------------------------------


  Job Finished at 12:57.30  8th March      2019                               

