********************************************************************************
*                       GENERAL UTILITY LATTICE PROGRAM                        *
*                                 Julian Gale                                  *
*                      Nanochemistry Research Institute                        *
*                           Department of Chemistry                            *
*                    Curtin University, Western Australia                      *
********************************************************************************
* Version = 4.4.2 * Last modified = 20th June 2016                             *
********************************************************************************
*  optimise     - perform optimisation run                                     *
*  conp         - constant pressure calculation                                *
*  property     - calculate properties for final geometry                      *
*  compare      - compare initial and final structures                         *
********************************************************************************

  Job Started  at 15:57.18  8th March      2019                               

  Number of CPUs =     1


  Total number of configurations input =   1

********************************************************************************
*  Input for Configuration =   1                                               *
********************************************************************************

  Formula = Ne4                                                         

  Number of irreducible atoms/shells =       4


  Total number atoms/shells =       4

  Dimensionality = 3               :  Bulk   



  Cartesian lattice vectors (Angstroms) :

        4.463680    0.000000    0.000000
        0.000000    4.463680    0.000000
        0.000000    0.000000    4.463680

  Cell parameters (Angstroms/Degrees):

  a =       4.4637    alpha =  90.0000
  b =       4.4637    beta  =  90.0000
  c =       4.4637    gamma =  90.0000

  Initial cell volume =          88.936321 Angs**3

  Temperature of configuration =  0.000     K 

  Pressure of configuration =         0.000 GPa 

  Fractional coordinates of asymmetric unit :

--------------------------------------------------------------------------------
   No.  Atomic       x           y          z         Charge      Occupancy
        Label      (Frac)      (Frac)     (Frac)        (e)         (Frac)  
--------------------------------------------------------------------------------
      1 Ne    c    0.000000    0.000000    0.000000     0.00000    1.000000    
      2 Ne    c    0.500000 *  0.500000 *  0.000000 *   0.00000    1.000000    
      3 Ne    c    0.500000 *  0.000000 *  0.500000 *   0.00000    1.000000    
      4 Ne    c    0.000000 *  0.500000 *  0.500000 *   0.00000    1.000000    
--------------------------------------------------------------------------------



********************************************************************************
*  General input information                                                   *
********************************************************************************

  Species output for all configurations : 

--------------------------------------------------------------------------------
  Species    Type    Atomic    Atomic    Charge       Radii (Angs)     Library
                     Number     Mass       (e)     Cova   Ionic  VDW   Symbol
--------------------------------------------------------------------------------
    Ne       Core       10      20.18   0.000000   0.000  0.000  0.000          
--------------------------------------------------------------------------------


  Lattice summation method               =    Ewald          (3-D)
                                         =    Parry          (2-D)
                                         =    Saunders et al (1-D)
  Accuracy factor for lattice sums       =   12.000


  Time limit = Infinity

  Maximum range for interatomic potentials =    100000.000000 Angstroms

  General interatomic potentials :

--------------------------------------------------------------------------------
Atom  Types   Potential         A         B         C         D     Cutoffs(Ang)
  1     2                                                            Min    Max 
--------------------------------------------------------------------------------
Ne   c Ne   c Lenn/es 12  6 0.410E-02  3.13      0.00      0.00     0.000 10.000
--------------------------------------------------------------------------------

********************************************************************************
*  Output for configuration   1                                                *
********************************************************************************


  Components of energy : 

--------------------------------------------------------------------------------
  Interatomic potentials     =          -0.13261729 eV
  Monopole - monopole (real) =           0.00000000 eV
  Monopole - monopole (recip)=           0.00000000 eV
  Monopole - monopole (total)=           0.00000000 eV
--------------------------------------------------------------------------------
  Total lattice energy       =          -0.13261729 eV
--------------------------------------------------------------------------------
  Total lattice energy       =             -12.7955 kJ/(mole unit cells)
--------------------------------------------------------------------------------


  Number of variables =       15

  Maximum number of calculations  =          1000
  Maximum Hessian update interval =            10
  Maximum step size               =   1.000000000
  Maximum parameter tolerance     =   0.000010000
  Maximum function  tolerance     =   0.000010000
  Maximum gradient  tolerance     =   0.001000000
  Maximum gradient  component     =   0.010000000

  Symmetry not applied to optimisation

  Cell parameters to be optimised using strains

  Newton-Raphson optimiser to be used

  BFGS hessian update to be used

  Start of bulk optimisation :

  Cycle:      0 Energy:        -0.132617  Gnorm:      0.010031  CPU:    0.003
  ** Hessian calculated **
  Cycle:      1 Energy:        -0.137709  Gnorm:      0.002498  CPU:    0.003
  Cycle:      2 Energy:        -0.137877  Gnorm:      0.000912  CPU:    0.004
  Cycle:      3 Energy:        -0.137906  Gnorm:      0.000001  CPU:    0.004


  **** Optimisation achieved ****


  Final energy =      -0.13790634 eV
  Final Gnorm  =       0.00000002

  Components of energy : 

--------------------------------------------------------------------------------
  Interatomic potentials     =          -0.13790634 eV
  Monopole - monopole (real) =           0.00000000 eV
  Monopole - monopole (recip)=           0.00000000 eV
  Monopole - monopole (total)=           0.00000000 eV
--------------------------------------------------------------------------------
  Total lattice energy       =          -0.13790634 eV
--------------------------------------------------------------------------------
  Total lattice energy       =             -13.3059 kJ/(mole unit cells)
--------------------------------------------------------------------------------

  Final fractional coordinates of atoms :

--------------------------------------------------------------------------------
   No.  Atomic        x           y          z          Radius
        Label       (Frac)      (Frac)     (Frac)       (Angs) 
--------------------------------------------------------------------------------
     1  Ne    c     0.000000    0.000000    0.000000    0.000000
     2  Ne    c     0.500000    0.500000    0.000000    0.000000
     3  Ne    c     0.500000    0.000000    0.500000    0.000000
     4  Ne    c     0.000000    0.500000    0.500000    0.000000
--------------------------------------------------------------------------------

  Final Cartesian lattice vectors (Angstroms) :

        4.304443    0.000000    0.000000
        0.000000    4.304443    0.000000
        0.000000    0.000000    4.304443


  Final cell parameters and derivatives :

--------------------------------------------------------------------------------
       a            4.304443 Angstrom     dE/de1(xx)    -0.000000 eV/strain
       b            4.304443 Angstrom     dE/de2(yy)    -0.000000 eV/strain
       c            4.304443 Angstrom     dE/de3(zz)    -0.000000 eV/strain
       alpha       90.000000 Degrees      dE/de4(yz)     0.000000 eV/strain
       beta        90.000000 Degrees      dE/de5(xz)    -0.000000 eV/strain
       gamma       90.000000 Degrees      dE/de6(xy)     0.000000 eV/strain
--------------------------------------------------------------------------------

  Primitive cell volume =            79.753714 Angs**3

  Density of cell =      1.680685 g/cm**3

  Non-primitive cell volume =            79.753714 Angs**3


  Final internal derivatives :

--------------------------------------------------------------------------------
   No.  Atomic          a             b             c           Radius
        Label          (eV)          (eV)          (eV)        (eV/Angs)
--------------------------------------------------------------------------------
      1 Ne    c       0.000000      0.000000      0.000000      0.000000
      2 Ne    c       0.000000      0.000000     -0.000000      0.000000
      3 Ne    c      -0.000000     -0.000000     -0.000000      0.000000
      4 Ne    c      -0.000000      0.000000      0.000000      0.000000
--------------------------------------------------------------------------------
  Maximum abs         0.000000      0.000000      0.000000      0.000000
--------------------------------------------------------------------------------

  Comparison of initial and final structures : 

--------------------------------------------------------------------------------
  Parameter   Initial value   Final value   Difference    Units      Percent
--------------------------------------------------------------------------------
    Volume        88.936321     79.753714    -9.182606    Angs**3    -10.32
    a              4.463680      4.304443    -0.159237    Angstroms   -3.57
    b              4.463680      4.304443    -0.159237    Angstroms   -3.57
    c              4.463680      4.304443    -0.159237    Angstroms   -3.57
    alpha         90.000000     90.000000     0.000000    Degrees      0.00
    beta          90.000000     90.000000     0.000000    Degrees      0.00
    gamma         90.000000     90.000000     0.000000    Degrees      0.00
      1 x          0.000000      0.000000     0.000000    Fractional   0.00
      1 y          0.000000      0.000000     0.000000    Fractional   0.00
      1 z          0.000000      0.000000     0.000000    Fractional   0.00
      2 x          0.500000      0.500000     0.000000    Fractional   0.00
      2 y          0.500000      0.500000     0.000000    Fractional   0.00
      2 z          0.000000      0.000000     0.000000    Fractional   0.00
      3 x          0.500000      0.500000     0.000000    Fractional   0.00
      3 y          0.000000      0.000000     0.000000    Fractional   0.00
      3 z          0.500000      0.500000     0.000000    Fractional   0.00
      4 x          0.000000      0.000000     0.000000    Fractional   0.00
      4 y          0.500000      0.500000     0.000000    Fractional   0.00
      4 z          0.500000      0.500000     0.000000    Fractional   0.00
--------------------------------------------------------------------------------



  Elastic Constant Matrix: (Units=GPa)

-------------------------------------------------------------------------------
  Indices      1         2         3         4         5         6    
-------------------------------------------------------------------------------
       1      3.1056    1.7717    1.7717   -0.0000    0.0000    0.0000
       2      1.7717    3.1056    1.7717   -0.0000    0.0000    0.0000
       3      1.7717    1.7717    3.1056   -0.0000    0.0000    0.0000
       4     -0.0000   -0.0000   -0.0000    1.7717    0.0000   -0.0000
       5      0.0000    0.0000    0.0000    0.0000    1.7717   -0.0000
       6      0.0000    0.0000    0.0000   -0.0000   -0.0000    1.7717
-------------------------------------------------------------------------------


  Elastic Compliance Matrix: (Units=1/GPa)

-------------------------------------------------------------------------------
  Indices      1         2         3         4         5         6    
-------------------------------------------------------------------------------
       1    0.549923 -0.199763 -0.199763 -0.000000 -0.000000  0.000000
       2   -0.199763  0.549923 -0.199763  0.000000  0.000000 -0.000000
       3   -0.199763 -0.199763  0.549923  0.000000  0.000000 -0.000000
       4   -0.000000  0.000000  0.000000  0.564424 -0.000000  0.000000
       5   -0.000000  0.000000  0.000000 -0.000000  0.564424  0.000000
       6    0.000000 -0.000000 -0.000000  0.000000  0.000000  0.564424
-------------------------------------------------------------------------------

  Mechanical properties :

-------------------------------------------------------------------------------
  Convention :                    Reuss         Voigt         Hill
-------------------------------------------------------------------------------
  Bulk  Modulus (GPa)     =       2.21635       2.21635       2.21635
  Shear Modulus (GPa)     =       1.06564       1.32981       1.19772
-------------------------------------------------------------------------------
  Velocity S-wave (km/s)  =       0.79627       0.88951       0.84418
  Velocity P-wave (km/s)  =       1.47109       1.54068       1.50629
-------------------------------------------------------------------------------
  Compressibility (1/GPa) =    0.45119250
-------------------------------------------------------------------------------
  Stress axis :                     x             y             z
-------------------------------------------------------------------------------
  Youngs Moduli (GPa)     =       1.81844       1.81844       1.81844
-------------------------------------------------------------------------------
  Poissons Ratio (x)      =                     0.36326       0.36326
  Poissons Ratio (y)      =       0.36326                     0.36326
  Poissons Ratio (z)      =       0.36326       0.36326
-------------------------------------------------------------------------------


  Piezoelectric Strain Matrix: (Units=C/m**2)

-------------------------------------------------------------------------------
  Indices      1         2         3         4         5         6    
-------------------------------------------------------------------------------
       x    -0.00000  -0.00000  -0.00000  -0.00000  -0.00000  -0.00000
       y    -0.00000  -0.00000  -0.00000  -0.00000  -0.00000  -0.00000
       z    -0.00000  -0.00000  -0.00000  -0.00000  -0.00000  -0.00000
-------------------------------------------------------------------------------


  Piezoelectric Stress Matrix: (Units=10**-11 C/N)

-------------------------------------------------------------------------------
  Indices      1         2         3         4         5         6    
-------------------------------------------------------------------------------
       x     0.00000   0.00000   0.00000   0.00000   0.00000   0.00000
       y     0.00000   0.00000   0.00000   0.00000   0.00000   0.00000
       z     0.00000   0.00000   0.00000   0.00000   0.00000   0.00000
-------------------------------------------------------------------------------


  Static dielectric constant tensor : 

-------------------------------------------------------------------------------
              x         y         z
-------------------------------------------------------------------------------
       x     1.00000   0.00000   0.00000
       y     0.00000   1.00000   0.00000
       z     0.00000   0.00000   1.00000
--------------------------------------------------------------------------------

  Static refractive indices : 

-------------------------------------------------------------------------------
    1 =    1.00000      2 =    1.00000      3 =    1.00000
-------------------------------------------------------------------------------


  Time to end of optimisation =       0.0057 seconds


  Peak dynamic memory used =       0.48 MB 


  Timing analysis for GULP :

--------------------------------------------------------------------------------
  Task / Subroutine                                          Time (Seconds)
--------------------------------------------------------------------------------
  Calculation of real space energy and derivatives                0.0022
--------------------------------------------------------------------------------
  Total CPU time                                                  0.0057
--------------------------------------------------------------------------------


  Job Finished at 15:57.18  8th March      2019                               

